 Q-Chem 5.0, Q-Chem, Inc., Pleasanton, CA (2017)
 Q-Chem 5.0.1 for Intel X86 EM64T Linux

User input:
--------------------------------------------------------------
$molecule
0  1
O -1.4820666389 1.3006913802 2.1121652195
C -1.8451955033 1.4295440621 0.9234434926
C -3.2815468424 1.1552029935 0.3343269947
C -3.4321793687 -0.2048618889 -0.4604663546
C -2.1325855722 -1.0737765816 -0.4801763018
O -2.3220237073 -2.1268372819 -1.4381499117
C -1.105606395 -2.967483427 -1.5212424445
C 0.1258472863 -2.2264528765 -2.1728918558
O 1.230737377 -2.2264003624 -1.1845584137
C 1.861300832 -0.946703159 -1.1246321982
C 3.029839349 -1.0341181954 -0.0866382295
C 3.8164206802 0.327859042 0.0593565345
C 3.5185967463 1.3715297667 -1.0808194246
O 3.1095586499 2.5454295437 -0.9537443908
O -1.0387460994 1.9420291554 -0.1365766648
O 4.0122779446 0.8158097455 -2.3097704577
O 1.477136088 0.0650123075 -1.754455611
C 3.7108444331 1.7334932977 -3.4298737612
C 2.3924445472 -1.1560115286 1.3665013945
C 3.5341893523 -1.4453558681 2.4176872731
C 4.195046257 -0.0219635396 2.5614456021
C 3.368427533 0.8019498662 1.5021011277
O 2.0031153993 0.2440747946 1.6589355168
H 3.6847853322 -1.8885405769 -0.3322627305
H 4.9043031516 0.1323673181 0.0354766786
H 1.5079644818 -1.8208490373 1.4156374311
H 3.1011010685 -1.7890453947 3.3702921418
H 4.242947024 -2.2074360348 2.0555532019
H 4.0413563584 0.3902995387 3.5713857449
H 5.2742212582 -0.0264914722 2.3400534424
H 3.3541363052 1.9009872971 1.6362576632
O -1.0892128539 -0.9265559126 0.1929051955
C 0.3230266766 2.246683335 0.363092057
C -4.3432288375 0.9430501067 1.492477655
C -5.7893938424 1.1308676875 0.8872315181
C -5.9520522309 -0.2069919991 0.0733357623
C -4.5777838065 -0.9213626048 0.3838727369
O -4.2729948013 -0.5116509786 1.770855875
H -3.550086154 2.0065526395 -0.3163691588
H -3.7514194257 -0.0400989225 -1.5050783063
H 0.812531047 1.3565267687 0.8291054984
H -4.1265534103 1.5174850829 2.4138558221
H -6.5394238131 1.2071040447 1.6905962947
H -5.8604882259 2.0274376485 0.2510478931
H -6.7915732251 -0.8117821999 0.4514258438
H -6.0969025882 -0.0364568727 -1.0055158914
H -4.5887796532 -2.0250170142 0.2914103024
H 0.2942333063 3.0697247187 1.1057092803
H 0.9172157036 2.5691084225 -0.5121945681
H 4.1923445782 1.2972960584 -4.3244446939
H 4.1122908543 2.7511481133 -3.2475450993
H 2.6166015651 1.8093790908 -3.5974388738
H 0.4650467454 -2.7646445359 -3.0835378814
H -0.1219309925 -1.1777823957 -2.447446959
H -1.4036631254 -3.838447436 -2.1376029193
H -0.7971036512 -3.3233929547 -0.5134309324
$end

$rem
JOBTYPE                   OPT
METHOD                    B3LYP
DFT_D                     d3_op
BASIS                     STO-3G
GEOM_OPT_MAX_CYCLES       100
GEOM_OPT_TOL_GRADIENT     300
GEOM_OPT_TOL_DISPLACEMENT 1200
GEOM_OPT_TOL_ENERGY       100
SYMMETRY                  False
THRESH                    12
SCF_CONVERGENCE           8
MAX_SUB_FILE_NUM          128
MEM_STATIC                400
MEM_TOTAL                 4000
$end
--------------------------------------------------------------

   16   -1510.2962455566      5.37E-09 Convergence criterion met
 Total energy in the final basis set = -1510.29624556
   13   -1510.2970060043      8.62E-09 Convergence criterion met
 Total energy in the final basis set = -1510.29700600
   14   -1510.2939573275      1.97E-09 Convergence criterion met
 Total energy in the final basis set = -1510.29395733
   14   -1510.2691626329      4.01E-09 Convergence criterion met
 Total energy in the final basis set = -1510.26916263
   14   -1510.2832565153      4.24E-09 Convergence criterion met
 Total energy in the final basis set = -1510.28325652
   14   -1510.2870010034      4.00E-09 Convergence criterion met
 Total energy in the final basis set = -1510.28700100
   14   -1510.2887266646      4.57E-09 Convergence criterion met
 Total energy in the final basis set = -1510.28872666
   13   -1510.2906564296      4.68E-09 Convergence criterion met
   11   -1510.3008382554      6.70E-09 Convergence criterion met
 Total energy in the final basis set = -1510.30083826
   11   -1510.3008463326      7.24E-09 Convergence criterion met
 Total energy in the final basis set = -1510.30084633
   10   -1510.3008464107      5.56E-09 Convergence criterion met
 Total energy in the final basis set = -1510.30084641
    9   -1510.3008489080      4.67E-09 Convergence criterion met
 Total energy in the final basis set = -1510.30084891
    9   -1510.3008600351      3.81E-09 Convergence criterion met
 Total energy in the final basis set = -1510.30086004
    9   -1510.3008614400      2.38E-09 Convergence criterion met
 Total energy in the final basis set = -1510.30086144

             Standard Nuclear Orientation (Angstroms)
    I     Atom           X                Y                Z
 ----------------------------------------------------------------
    1      O       1.1316563560     2.3248170853     0.1247845567
    2      C       1.6067230073     1.4219666386     0.8468815975
    3      C       3.0823323152     0.8720840717     0.8195554133
    4      C       3.2341677096    -0.6497295626     0.4206430900
    5      C       1.9291973658    -1.2828801153    -0.1646020095
    6      O       2.0570511395    -2.7055703838    -0.0656518308
    7      C       0.9873263776    -3.4079240472    -0.8140551963
    8      C      -0.4471471885    -3.3176873558    -0.1640929567
    9      O      -1.2879104143    -2.3956028294    -0.9615020351
   10      C      -1.7824174174    -1.3295149014    -0.1437217596
   11      C      -2.5070935151    -0.3066894973    -1.0740670755
   12      C      -3.6846817963     0.4877069834    -0.3732617013
   13      C      -3.8389316371     0.1551269740     1.1560726192
   14      O      -3.5621504847     0.8877750398     2.1286165742
   15      O       0.9303609918     0.7648483056     1.9148470350
   16      O      -4.4378506284    -1.1439172224     1.2607993113
   17      O      -1.6299808332    -1.2686401042     1.0970243172
   18      C      -4.5044630100    -1.5520096853     2.6815147622
   19      C      -1.5289082527     0.8862280948    -1.4808016154
   20      C      -2.1353764493     1.6022785210    -2.7459311616
   21      C      -3.3601266140     2.3632062117    -2.1086921507
   22      C      -3.2077732521     1.9806810288    -0.5850058851
   23      O      -1.7384315351     1.8872665859    -0.4108789719
   24      H      -2.8559098991    -0.8483314961    -1.9703014559
   25      H      -4.6471051251     0.2790387805    -0.8742538530
   26      H      -0.4598361690     0.5922824690    -1.5259888295
   27      H      -1.4025325558     2.3060524110    -3.1718930722
   28      H      -2.4360999638     0.8864610259    -3.5276433776
   29      H      -3.2704576729     3.4530243614    -2.2409343835
   30      H      -4.3269166021     2.0353870014    -2.5233607151
   31      H      -3.6334005560     2.7010700906     0.1399588187
   32      O       0.9618464774    -0.6964082320    -0.6964249472
   33      C      -0.4331411719     1.3235284319     2.1065766851
   34      C       3.9676855734     1.5746838015    -0.2937076343
   35      C       5.4817745969     1.4211664911     0.1209264874
   36      C       5.7015273464    -0.1170373132    -0.1312353737
   37      C       4.3072006464    -0.5326723223    -0.7496614460
   38      O       3.8543744045     0.6777761550    -1.4698165568
   39      H       3.5122867529     1.0355734680     1.8242371068
   40      H       3.5934927663    -1.2768505554     1.2551954114
   41      H      -0.9445800573     1.5349702746     1.1328870007
   42      H       3.6321656884     2.5970433288    -0.5558068477
   43      H       6.1243442933     2.0309317358    -0.5344183611
   44      H       5.6620843284     1.7140603406     1.1674160157
   45      H       6.5134197018    -0.2998107522    -0.8527557255
   46      H       5.9210746615    -0.6713677907     0.7953043134
   47      H       4.3367175274    -1.4065414905    -1.4295715225
   48      H      -0.3786958173     2.2557540763     2.7050252947
   49      H      -1.0005463564     0.5608722840     2.6693427368
   50      H      -5.0295998005    -2.5246874049     2.6986573200
   51      H      -5.0625856459    -0.8156937866     3.2949642203
   52      H      -3.4875816752    -1.6710559238     3.1093027152
   53      H      -0.9259517257    -4.3195179881    -0.1782574485
   54      H      -0.3993107721    -2.9481688895     0.8844556127
   55      H       1.3196134598    -4.4651483847    -0.8385189810
   56      H       0.9201605872    -3.0256125843    -1.8566132225
 ----------------------------------------------------------------

    9   -1510.3008618517      3.81E-09 Convergence criterion met
 Total energy in the final basis set = -1510.30086185
 Final energy is   -1510.30086185171
 **  OPTIMIZATION CONVERGED  **

                    Orbital Energies (a.u.)
 --------------------------------------------------------------

 Alpha MOs
 -- Occupied --
-18.939 -18.934 -18.924 -18.903 -18.898 -18.884 -18.883 -18.878
-18.867 -18.849 -10.106 -10.102 -10.093 -10.079 -10.077 -10.071
-10.059 -10.058 -10.057 -10.053 -10.051 -10.036 -10.036 -10.034
-10.025 -10.018 -10.018 -10.016 -10.015 -10.009  -1.020  -1.011
 -1.001  -0.983  -0.972  -0.966  -0.944  -0.938  -0.928  -0.910
 -0.762  -0.758  -0.726  -0.719  -0.711  -0.701  -0.694  -0.656
 -0.632  -0.618  -0.592  -0.577  -0.544  -0.539  -0.534  -0.531
 -0.512  -0.504  -0.481  -0.464  -0.459  -0.449  -0.449  -0.444
 -0.436  -0.428  -0.425  -0.412  -0.406  -0.400  -0.397  -0.390
 -0.378  -0.375  -0.374  -0.361  -0.354  -0.352  -0.349  -0.345
 -0.341  -0.334  -0.329  -0.328  -0.325  -0.321  -0.317  -0.307
 -0.305  -0.302  -0.297  -0.295  -0.294  -0.279  -0.272  -0.269
 -0.265  -0.257  -0.249  -0.246  -0.239  -0.230  -0.216  -0.190
 -0.172  -0.168  -0.160  -0.157  -0.153  -0.145  -0.141  -0.139
 -0.129

          Ground-State Mulliken Net Atomic Charges

     Atom                 Charge (a.u.)
  ----------------------------------------
      1 O                    -0.216186
      2 C                     0.210022
      3 C                    -0.081291
      4 C                    -0.077026
      5 C                     0.219323
      6 O                    -0.172248
      7 C                    -0.050267
      8 C                    -0.056697
      9 O                    -0.171107
     10 C                     0.221472
     11 C                    -0.079186
     12 C                    -0.080805
     13 C                     0.214674
     14 O                    -0.212511
     15 O                    -0.181595
     16 O                    -0.175685
     17 O                    -0.214059
     18 C                    -0.128946
     19 C                     0.022924
     20 C                    -0.142443
     21 C                    -0.143669
     22 C                     0.027081
     23 O                    -0.178553
     24 H                     0.087481
     25 H                     0.084956
     26 H                     0.111937
     27 H                     0.082580
     28 H                     0.073517
     29 H                     0.079814
     30 H                     0.072874
     31 H                     0.090210
     32 O                    -0.213483
     33 C                    -0.152239
     34 C                     0.023615
     35 C                    -0.143216
     36 C                    -0.144260
     37 C                     0.024693
     38 O                    -0.191051
     39 H                     0.082311
     40 H                     0.087830
     41 H                     0.119231
     42 H                     0.090773
     43 H                     0.077094
     44 H                     0.073443
     45 H                     0.077190
     46 H                     0.073567
     47 H                     0.080450
     48 H                     0.068873
     49 H                     0.085965
     50 H                     0.086879
     51 H                     0.088095
     52 H                     0.092007
     53 H                     0.085096
     54 H                     0.105851
     55 H                     0.090438
     56 H                     0.094253
  ----------------------------------------
  Sum of atomic charges =     0.000000

                    Cartesian Multipole Moments
 -----------------------------------------------------------------
    Charge (ESU x 10^10)
                -0.0000
    Dipole Moment (Debye)
         X      -0.0301      Y      -2.9387      Z      -0.7664
       Tot       3.0371
    Quadrupole Moments (Debye-Ang)
        XX    -142.0356     XY      -1.1995     YY    -153.9681
        XZ       6.4413     YZ      -0.8770     ZZ    -159.3067

 Total job time:  118.74s(wall), 5665.36s(cpu)
        *  Thank you very much for using Q-Chem.  Have a nice day.  *
