 Q-Chem 5.0, Q-Chem, Inc., Pleasanton, CA (2017)
 Q-Chem 5.0.1 for Intel X86 EM64T Linux

User input:
--------------------------------------------------------------
$molecule
0  1
O -3.94934 -3.66094 2.70899
C -3.26408 -4.56952 2.26188
C -3.36658 -6.02376 2.66595
C -2.29068 -6.56497 3.62166
C -1.33556 -5.54849 4.207
O -0.29908 -6.18793 4.82525
C 0.6658 -5.28871 5.38172
C 1.42193 -4.57341 4.26694
O 1.251 -3.15292 4.39288
C 0.99116 -2.49216 3.23745
C 0.84935 -1.00121 3.4314
C 0.56588 -0.20565 2.14882
C 0.1175 -1.01975 0.95178
O -0.91222 -0.83992 0.31782
O -2.47758 -4.31908 1.18864
O 1.13855 -1.647 0.29896
O 0.87779 -3.10207 2.18791
C 1.03443 -2.292 -0.91602
C -0.35798 -0.60152 4.30016
C -0.09934 0.76594 4.92767
C -0.19325 1.65805 3.70637
C -0.62953 0.63379 2.65039
O -1.37744 -0.31192 3.37633
H 1.79105 -0.65725 3.91675
H 1.4249 0.42384 1.82689
H -0.6073 -1.34741 5.08618
H -0.96524 0.98201 5.59408
H 0.84188 0.85905 5.51108
H -0.99061 2.41301 3.88562
H 0.7526 2.16222 3.41165
H -1.1659 1.14904 1.8235
O -1.43919 -4.33062 4.12183
C -2.67254 -3.2212 0.38222
C -4.61609 -6.28528 3.54598
C -5.01074 -7.76077 3.47644
C -3.89957 -8.3887 4.28949
C -3.15553 -7.1332 4.75358
O -4.16179 -6.15959 4.87167
H -3.49477 -6.61925 1.73384
H -1.668 -7.32454 3.09725
H -2.63832 -2.29716 0.99145
H -5.49028 -5.65614 3.26832
H -5.9646 -7.86984 4.04116
H -5.14416 -8.17282 2.45315
H -4.35332 -8.91841 5.1565
H -3.23153 -9.07798 3.72879
H -2.56945 -7.34618 5.67481
H -3.66982 -3.28482 -0.10352
H -1.90365 -3.20263 -0.41168
H 2.03227 -2.68047 -1.2052
H 0.6853 -1.58624 -1.69951
H 0.33836 -3.15037 -0.83603
H 2.50219 -4.74292 4.46981
H 1.26077 -5.05151 3.27493
H 1.39102 -5.93041 5.92813
H 0.23055 -4.59709 6.13856
$end

$opt
CONSTRAINT
tors           1           2           3           4    -102.905
tors           3           4           5           6    -168.775
tors           4           5           6           7    +178.747
tors           5           6           7           8     -68.965
tors           6           7           8           9    +121.238
tors           7           8           9          10    -135.920
tors           8           9          10          11    -178.852
tors           9          10          11          12    +179.510
tors          11          12          13          14    +124.185
ENDCONSTRAINT
$end

$rem
JOBTYPE                   OPT
METHOD                    B3LYP
DFT_D                     d3_op
BASIS                     STO-3G
GEOM_OPT_MAX_CYCLES       100
GEOM_OPT_TOL_GRADIENT     300
GEOM_OPT_TOL_DISPLACEMENT 1200
GEOM_OPT_TOL_ENERGY       100
SYMMETRY                  False
THRESH                    12
SCF_CONVERGENCE           8
MAX_SUB_FILE_NUM          128
MEM_STATIC                400
MEM_TOTAL                 4000
$end
--------------------------------------------------------------

   15   -1510.1425409598      8.08E-09 Convergence criterion met
 Total energy in the final basis set = -1510.14254096
   14   -1510.2122973579      2.36E-09 Convergence criterion met
 Total energy in the final basis set = -1510.21229736
   15   -1510.2375639033      3.12E-09 Convergence criterion met
 Total energy in the final basis set = -1510.23756390
   14   -1510.2678262923      6.53E-09 Convergence criterion met
 Total energy in the final basis set = -1510.26782629
   13   -1510.2773471581      7.24E-09 Convergence criterion met
 Total energy in the final basis set = -1510.27734716
   13   -1510.2842935585      5.17E-09 Convergence criterion met
 Total energy in the final basis set = -1510.28429356
   13   -1510.2877186281      4.73E-09 Convergence criterion met
 Total energy in the final basis set = -1510.28771863
   13   -1510.2892412573      5.32E-09 Convergence criterion met
   11   -1510.2958732876      9.56E-09 Convergence criterion met
 Total energy in the final basis set = -1510.29587329
   11   -1510.2959523375      4.04E-09 Convergence criterion met
 Total energy in the final basis set = -1510.29595234
   11   -1510.2959910710      6.01E-09 Convergence criterion met
 Total energy in the final basis set = -1510.29599107
   10   -1510.2960054952      5.89E-09 Convergence criterion met
 Total energy in the final basis set = -1510.29600550
    9   -1510.2960098322      7.88E-09 Convergence criterion met
 Total energy in the final basis set = -1510.29600983
    9   -1510.2960116287      3.11E-09 Convergence criterion met
 Total energy in the final basis set = -1510.29601163

             Standard Nuclear Orientation (Angstroms)
    I     Atom           X                Y                Z
 ----------------------------------------------------------------
    1      O      -1.4820666389     1.3006913802     2.1121652195
    2      C      -1.8451955033     1.4295440621     0.9234434926
    3      C      -3.2815468424     1.1552029935     0.3343269947
    4      C      -3.4321793687    -0.2048618889    -0.4604663546
    5      C      -2.1325855722    -1.0737765816    -0.4801763018
    6      O      -2.3220237073    -2.1268372819    -1.4381499117
    7      C      -1.1056063950    -2.9674834270    -1.5212424445
    8      C       0.1258472863    -2.2264528765    -2.1728918558
    9      O       1.2307373770    -2.2264003624    -1.1845584137
   10      C       1.8613008320    -0.9467031590    -1.1246321982
   11      C       3.0298393490    -1.0341181954    -0.0866382295
   12      C       3.8164206802     0.3278590420     0.0593565345
   13      C       3.5185967463     1.3715297667    -1.0808194246
   14      O       3.1095586499     2.5454295437    -0.9537443908
   15      O      -1.0387460994     1.9420291554    -0.1365766648
   16      O       4.0122779446     0.8158097455    -2.3097704577
   17      O       1.4771360880     0.0650123075    -1.7544556110
   18      C       3.7108444331     1.7334932977    -3.4298737612
   19      C       2.3924445472    -1.1560115286     1.3665013945
   20      C       3.5341893523    -1.4453558681     2.4176872731
   21      C       4.1950462570    -0.0219635396     2.5614456021
   22      C       3.3684275330     0.8019498662     1.5021011277
   23      O       2.0031153993     0.2440747946     1.6589355168
   24      H       3.6847853322    -1.8885405769    -0.3322627305
   25      H       4.9043031516     0.1323673181     0.0354766786
   26      H       1.5079644818    -1.8208490373     1.4156374311
   27      H       3.1011010685    -1.7890453947     3.3702921418
   28      H       4.2429470240    -2.2074360348     2.0555532019
   29      H       4.0413563584     0.3902995387     3.5713857449
   30      H       5.2742212582    -0.0264914722     2.3400534424
   31      H       3.3541363052     1.9009872971     1.6362576632
   32      O      -1.0892128539    -0.9265559126     0.1929051955
   33      C       0.3230266766     2.2466833350     0.3630920570
   34      C      -4.3432288375     0.9430501067     1.4924776550
   35      C      -5.7893938424     1.1308676875     0.8872315181
   36      C      -5.9520522309    -0.2069919991     0.0733357623
   37      C      -4.5777838065    -0.9213626048     0.3838727369
   38      O      -4.2729948013    -0.5116509786     1.7708558750
   39      H      -3.5500861540     2.0065526395    -0.3163691588
   40      H      -3.7514194257    -0.0400989225    -1.5050783063
   41      H       0.8125310470     1.3565267687     0.8291054984
   42      H      -4.1265534103     1.5174850829     2.4138558221
   43      H      -6.5394238131     1.2071040447     1.6905962947
   44      H      -5.8604882259     2.0274376485     0.2510478931
   45      H      -6.7915732251    -0.8117821999     0.4514258438
   46      H      -6.0969025882    -0.0364568727    -1.0055158914
   47      H      -4.5887796532    -2.0250170142     0.2914103024
   48      H       0.2942333063     3.0697247187     1.1057092803
   49      H       0.9172157036     2.5691084225    -0.5121945681
   50      H       4.1923445782     1.2972960584    -4.3244446939
   51      H       4.1122908543     2.7511481133    -3.2475450993
   52      H       2.6166015651     1.8093790908    -3.5974388738
   53      H       0.4650467454    -2.7646445359    -3.0835378814
   54      H      -0.1219309925    -1.1777823957    -2.4474469590
   55      H      -1.4036631254    -3.8384474360    -2.1376029193
   56      H      -0.7971036512    -3.3233929547    -0.5134309324
 ----------------------------------------------------------------

    9   -1510.2960126137      1.95E-09 Convergence criterion met
 Total energy in the final basis set = -1510.29601261
 Final energy is   -1510.29601261367
 **  OPTIMIZATION CONVERGED  **

                    Orbital Energies (a.u.)
 --------------------------------------------------------------

 Alpha MOs
 -- Occupied --
-18.941 -18.936 -18.922 -18.900 -18.900 -18.888 -18.882 -18.881
-18.866 -18.843 -10.108 -10.101 -10.095 -10.078 -10.075 -10.073
-10.064 -10.061 -10.056 -10.056 -10.049 -10.043 -10.037 -10.034
-10.023 -10.022 -10.021 -10.016 -10.013 -10.010  -1.022  -1.014
 -1.001  -0.980  -0.976  -0.963  -0.945  -0.939  -0.928  -0.905
 -0.767  -0.756  -0.729  -0.720  -0.712  -0.703  -0.693  -0.656
 -0.631  -0.619  -0.594  -0.577  -0.548  -0.540  -0.537  -0.529
 -0.514  -0.505  -0.483  -0.466  -0.459  -0.454  -0.449  -0.444
 -0.434  -0.433  -0.425  -0.411  -0.405  -0.402  -0.398  -0.388
 -0.379  -0.375  -0.371  -0.364  -0.355  -0.351  -0.350  -0.345
 -0.337  -0.336  -0.330  -0.328  -0.326  -0.321  -0.315  -0.314
 -0.306  -0.306  -0.302  -0.296  -0.292  -0.281  -0.274  -0.269
 -0.263  -0.256  -0.253  -0.247  -0.241  -0.228  -0.218  -0.190
 -0.176  -0.167  -0.164  -0.157  -0.154  -0.146  -0.139  -0.138
 -0.124

          Ground-State Mulliken Net Atomic Charges

     Atom                 Charge (a.u.)
  ----------------------------------------
      1 O                    -0.217342
      2 C                     0.212141
      3 C                    -0.081603
      4 C                    -0.078294
      5 C                     0.212595
      6 O                    -0.173592
      7 C                    -0.049908
      8 C                    -0.054383
      9 O                    -0.171179
     10 C                     0.222336
     11 C                    -0.076900
     12 C                    -0.081377
     13 C                     0.218757
     14 O                    -0.217901
     15 O                    -0.180155
     16 O                    -0.176595
     17 O                    -0.205728
     18 C                    -0.128762
     19 C                     0.028315
     20 C                    -0.143786
     21 C                    -0.142255
     22 C                     0.025344
     23 O                    -0.180759
     24 H                     0.088829
     25 H                     0.084858
     26 H                     0.095788
     27 H                     0.081617
     28 H                     0.074129
     29 H                     0.080953
     30 H                     0.074001
     31 H                     0.093421
     32 O                    -0.204687
     33 C                    -0.151084
     34 C                     0.024996
     35 C                    -0.144250
     36 C                    -0.143735
     37 C                     0.025266
     38 O                    -0.189193
     39 H                     0.082045
     40 H                     0.085740
     41 H                     0.110042
     42 H                     0.088691
     43 H                     0.076748
     44 H                     0.072941
     45 H                     0.076924
     46 H                     0.072806
     47 H                     0.081971
     48 H                     0.070682
     49 H                     0.088785
     50 H                     0.086359
     51 H                     0.088410
     52 H                     0.091523
     53 H                     0.084379
     54 H                     0.105585
     55 H                     0.090182
     56 H                     0.096308
  ----------------------------------------
  Sum of atomic charges =     0.000000

                    Cartesian Multipole Moments
 -----------------------------------------------------------------
    Charge (ESU x 10^10)
                 0.0000
    Dipole Moment (Debye)
         X       1.1702      Y      -2.3782      Z      -2.5753
       Tot       3.6956
    Quadrupole Moments (Debye-Ang)
        XX    -139.9863     XY      -4.5974     YY    -156.0684
        XZ       7.2157     YZ       1.9438     ZZ    -158.9271

 Total job time:  63.41s(wall), 3022.90s(cpu)
        *  Thank you very much for using Q-Chem.  Have a nice day.  *
