 Q-Chem 5.0, Q-Chem, Inc., Pleasanton, CA (2017)
 Q-Chem 5.0.1 for Intel X86 EM64T Linux

User input:
--------------------------------------------------------------
$molecule
0  1
O -3.94934 -3.66094 2.70899
C -3.26408 -4.56952 2.26188
C -3.36658 -6.02376 2.66595
C -2.30727 -6.55757 3.64409
C -1.36996 -5.53491 4.24717
O -0.31766 -6.16649 4.84649
C 0.63164 -5.2602 5.4181
C 1.44399 -4.58644 4.31707
O 1.35572 -3.15884 4.44761
C 1.09516 -2.48344 3.30084
C 1.04203 -0.98717 3.49836
C 0.76117 -0.17573 2.22519
C 0.22989 -0.96253 1.04392
O -0.86099 -0.79959 0.51667
O -2.48703 -4.31863 1.18071
O 1.19306 -1.60298 0.32138
O 0.94317 -3.07656 2.24565
C 0.99094 -2.26151 -0.87291
C -0.11329 -0.52486 4.40601
C 0.23811 0.82602 5.02443
C 0.15122 1.72349 3.80676
C -0.37197 0.72457 2.76612
O -1.14538 -0.18072 3.51616
H 2.0154 -0.69628 3.95502
H 1.63561 0.41617 1.87486
H -0.37608 -1.25746 5.20015
H -0.5924 1.08688 5.7193
H 1.20187 0.86794 5.57605
H -0.59995 2.51836 4.01137
H 1.11181 2.17858 3.48152
H -0.90644 1.26784 1.9559
O -1.47576 -4.31734 4.1565
C -2.68055 -3.21404 0.38101
C -4.632 -6.2895 3.52157
C -5.01775 -7.76721 3.44845
C -3.91995 -8.38715 4.28549
C -3.19137 -7.12658 4.76025
O -4.20469 -6.15778 4.85563
H -3.47433 -6.62196 1.73296
H -1.67168 -7.31615 3.13371
H -2.62871 -2.2924 0.99142
H -5.50345 -5.6653 3.22471
H -5.98221 -7.87963 3.99417
H -5.12841 -8.18273 2.42384
H -4.38827 -8.9162 5.14512
H -3.23769 -9.07508 3.74047
H -2.62178 -7.33361 5.69319
H -3.68431 -3.26543 -0.09265
H -1.92253 -3.19686 -0.42277
H 1.96305 -2.64974 -1.23972
H 0.5741 -1.56632 -1.63242
H 0.31101 -3.12267 -0.72358
H 2.51098 -4.83917 4.50235
H 1.23107 -5.03754 3.32245
H 1.32983 -5.88031 6.02143
H 0.16608 -4.54377 6.13331
$end

$opt
CONSTRAINT
tors           1           2           3           4    -101.695
tors           3           4           5           6    -166.642
tors           4           5           6           7    +178.747
tors           5           6           7           8     -73.421
tors           6           7           8           9    +125.092
tors           7           8           9          10    -133.252
tors           8           9          10          11    -178.852
tors           9          10          11          12    +179.510
tors          11          12          13          14    +117.484
ENDCONSTRAINT
$end

$rem
JOBTYPE                   OPT
METHOD                    B3LYP
DFT_D                     d3_op
BASIS                     STO-3G
GEOM_OPT_MAX_CYCLES       100
GEOM_OPT_TOL_GRADIENT     300
GEOM_OPT_TOL_DISPLACEMENT 1200
GEOM_OPT_TOL_ENERGY       100
SYMMETRY                  False
THRESH                    12
SCF_CONVERGENCE           8
MAX_SUB_FILE_NUM          128
MEM_STATIC                400
MEM_TOTAL                 4000
$end
--------------------------------------------------------------

   15   -1510.1462474011      6.51E-09 Convergence criterion met
 Total energy in the final basis set = -1510.14624740
   14   -1510.2164679954      5.06E-09 Convergence criterion met
 Total energy in the final basis set = -1510.21646800
   15   -1510.2325847370      3.11E-09 Convergence criterion met
 Total energy in the final basis set = -1510.23258474
   14   -1510.2701153816      5.06E-09 Convergence criterion met
 Total energy in the final basis set = -1510.27011538
   13   -1510.2782669365      6.27E-09 Convergence criterion met
 Total energy in the final basis set = -1510.27826694
   13   -1510.2842240300      4.57E-09 Convergence criterion met
 Total energy in the final basis set = -1510.28422403
   13   -1510.2881630214      4.73E-09 Convergence criterion met
 Total energy in the final basis set = -1510.28816302
   13   -1510.2910066706      3.86E-09 Convergence criterion met
   10   -1510.2965695709      7.07E-09 Convergence criterion met
 Total energy in the final basis set = -1510.29656957
   11   -1510.2965901566      5.32E-09 Convergence criterion met
 Total energy in the final basis set = -1510.29659016
   10   -1510.2965972468      3.66E-09 Convergence criterion met
 Total energy in the final basis set = -1510.29659725
    9   -1510.2965979739      7.25E-09 Convergence criterion met
 Total energy in the final basis set = -1510.29659797
    9   -1510.2965986450      1.90E-09 Convergence criterion met
 Total energy in the final basis set = -1510.29659865
    8   -1510.2965984341      7.60E-09 Convergence criterion met
 Total energy in the final basis set = -1510.29659843

             Standard Nuclear Orientation (Angstroms)
    I     Atom           X                Y                Z
 ----------------------------------------------------------------
    1      O      -1.6589054574     1.1825060807     2.2526202654
    2      C      -1.9300342606     1.3388823729     1.0425141305
    3      C      -3.3267380759     1.0980694169     0.3502757767
    4      C      -3.4501317196    -0.2610733293    -0.4513595040
    5      C      -2.1427416429    -1.1158833515    -0.4495022223
    6      O      -2.2798691752    -2.1390629859    -1.4483264744
    7      C      -1.0476719392    -2.9590472732    -1.5040987239
    8      C       0.1574863385    -2.1999497602    -2.1836349941
    9      O       1.3086417695    -2.2092941380    -1.2488917108
   10      C       1.8877322209    -0.9066667664    -1.1552199705
   11      C       3.1102814807    -0.9826028288    -0.1827245731
   12      C       3.8392092590     0.4101237556    -0.0133012348
   13      C       3.4030733761     1.5027917570    -1.0596657522
   14      O       2.8439880273     2.5996708067    -0.8421135122
   15      O      -1.0401310880     1.8693914009     0.0614471159
   16      O       3.9215346056     1.1015550184    -2.3360373522
   17      O       1.4394953332     0.1110017333    -1.7316089166
   18      C       3.4756486216     2.0529338087    -3.3776509535
   19      C       2.5823956661    -1.2193759966     1.2992273302
   20      C       3.8120040453    -1.5123282366     2.2455899673
   21      C       4.4144376799    -0.0679509880     2.4295231972
   22      C       3.4728829188     0.7734140139     1.4850170829
   23      O       2.1504030700     0.1378382918     1.7039563152
   24      H       3.7934583413    -1.7845635021    -0.5145738306
   25      H       4.9302387898     0.2743203255    -0.1254116193
   26      H       1.7380839670    -1.9327935107     1.3686731406
   27      H       3.4683168260    -1.9334560381     3.2035893638
   28      H       4.5255716258    -2.2149076359     1.7860246064
   29      H       4.3182020136     0.2766175290     3.4714614255
   30      H       5.4728958331    -0.0050175301     2.1302515531
   31      H       3.4157510660     1.8599556689     1.6898629795
   32      O      -1.1278065625    -0.9795044344     0.2681044669
   33      C       0.2801635017     2.1459262280     0.6754530486
   34      C      -4.4596692307     0.9002819726     1.4410599577
   35      C      -5.8683495421     1.0719410123     0.7483932039
   36      C      -5.9866971650    -0.2850590397    -0.0407815770
   37      C      -4.6243337533    -0.9819828174     0.3496142940
   38      O      -4.3970129266    -0.5499995007     1.7444880571
   39      H      -3.5356197676     1.9556215043    -0.3137729291
   40      H      -3.7423530870    -0.0900673125    -1.5028482039
   41      H       0.7674094430     1.2238876818     1.0734579967
   42      H      -4.3034088129     1.4889433750     2.3656233954
   43      H      -6.6628433212     1.1680613439     1.5054935961
   44      H      -5.9020023693     1.9528267231     0.0875456354
   45      H      -6.8392096072    -0.8863636108     0.3131355830
   46      H      -6.0833211928    -0.1409292868    -1.1288893426
   47      H      -4.6196627373    -2.0868130425     0.2722768379
   48      H       0.1862434538     2.8840054596     1.4970602461
   49      H       0.9276360272     2.5607669474    -0.1215656255
   50      H       3.9391543659     1.7141800441    -4.3224717301
   51      H       3.7998838143     3.0897115241    -3.1537700433
   52      H       2.3710007734     2.0413311991    -3.4800343680
   53      H       0.4615449217    -2.7123713233    -3.1208019374
   54      H      -0.1063959742    -1.1455669967    -2.4194722492
   55      H      -1.3234259267    -3.8560483983    -2.0926806266
   56      H      -0.7305235074    -3.2722601526    -0.4851488857
 ----------------------------------------------------------------

    8   -1510.2965983676      7.75E-09 Convergence criterion met
 Total energy in the final basis set = -1510.29659837
 Final energy is   -1510.29659836761
 **  OPTIMIZATION CONVERGED  **

                    Orbital Energies (a.u.)
 --------------------------------------------------------------

 Alpha MOs
 -- Occupied --
-18.942 -18.936 -18.924 -18.900 -18.899 -18.890 -18.882 -18.881
-18.868 -18.841 -10.109 -10.100 -10.097 -10.078 -10.074 -10.072
-10.065 -10.062 -10.057 -10.056 -10.049 -10.044 -10.038 -10.033
-10.023 -10.022 -10.022 -10.016 -10.013 -10.007  -1.023  -1.014
 -1.003  -0.979  -0.977  -0.963  -0.947  -0.939  -0.930  -0.904
 -0.768  -0.755  -0.730  -0.720  -0.712  -0.703  -0.693  -0.658
 -0.629  -0.619  -0.594  -0.576  -0.549  -0.541  -0.537  -0.529
 -0.515  -0.505  -0.483  -0.466  -0.459  -0.455  -0.449  -0.444
 -0.434  -0.434  -0.425  -0.412  -0.406  -0.402  -0.399  -0.388
 -0.380  -0.374  -0.371  -0.365  -0.355  -0.352  -0.349  -0.347
 -0.339  -0.336  -0.330  -0.327  -0.326  -0.321  -0.315  -0.315
 -0.307  -0.306  -0.303  -0.295  -0.291  -0.280  -0.276  -0.269
 -0.263  -0.257  -0.252  -0.248  -0.240  -0.227  -0.218  -0.191
 -0.175  -0.169  -0.165  -0.157  -0.154  -0.148  -0.139  -0.137
 -0.123

          Ground-State Mulliken Net Atomic Charges

     Atom                 Charge (a.u.)
  ----------------------------------------
      1 O                    -0.218687
      2 C                     0.211892
      3 C                    -0.081466
      4 C                    -0.078710
      5 C                     0.212084
      6 O                    -0.173564
      7 C                    -0.050483
      8 C                    -0.055633
      9 O                    -0.171042
     10 C                     0.221494
     11 C                    -0.076777
     12 C                    -0.081365
     13 C                     0.220450
     14 O                    -0.217190
     15 O                    -0.179486
     16 O                    -0.175741
     17 O                    -0.204722
     18 C                    -0.128578
     19 C                     0.028258
     20 C                    -0.143787
     21 C                    -0.142388
     22 C                     0.025458
     23 O                    -0.181929
     24 H                     0.088912
     25 H                     0.085210
     26 H                     0.094329
     27 H                     0.081318
     28 H                     0.074200
     29 H                     0.080811
     30 H                     0.074053
     31 H                     0.092748
     32 O                    -0.204144
     33 C                    -0.153721
     34 C                     0.025300
     35 C                    -0.144564
     36 C                    -0.143458
     37 C                     0.025410
     38 O                    -0.188365
     39 H                     0.082115
     40 H                     0.085358
     41 H                     0.106153
     42 H                     0.088522
     43 H                     0.076782
     44 H                     0.072898
     45 H                     0.076875
     46 H                     0.072684
     47 H                     0.081897
     48 H                     0.070921
     49 H                     0.094045
     50 H                     0.086742
     51 H                     0.088053
     52 H                     0.093025
     53 H                     0.084342
     54 H                     0.106064
     55 H                     0.090020
     56 H                     0.097378
  ----------------------------------------
  Sum of atomic charges =     0.000000

                    Cartesian Multipole Moments
 -----------------------------------------------------------------
    Charge (ESU x 10^10)
                -0.0000
    Dipole Moment (Debye)
         X       1.5535      Y      -2.1716      Z      -2.9318
       Tot       3.9654
    Quadrupole Moments (Debye-Ang)
        XX    -139.3255     XY      -4.0211     YY    -155.4230
        XZ       7.8056     YZ       1.5420     ZZ    -159.9663

 Total job time:  68.22s(wall), 3251.80s(cpu)
        *  Thank you very much for using Q-Chem.  Have a nice day.  *
