 Q-Chem 5.0, Q-Chem, Inc., Pleasanton, CA (2017)
 Q-Chem 5.0.1 for Intel X86 EM64T Linux

User input:
--------------------------------------------------------------
$molecule
0  1
O -1.6589054574 1.1825060807 2.2526202654
C -1.9300342606 1.3388823729 1.0425141305
C -3.3267380759 1.0980694169 0.3502757767
C -3.4501317196 -0.2610733293 -0.451359504
C -2.1427416429 -1.1158833515 -0.4495022223
O -2.2798691752 -2.1390629859 -1.4483264744
C -1.0476719392 -2.9590472732 -1.5040987239
C 0.1574863385 -2.1999497602 -2.1836349941
O 1.3086417695 -2.209294138 -1.2488917108
C 1.8877322209 -0.9066667664 -1.1552199705
C 3.1102814807 -0.9826028288 -0.1827245731
C 3.839209259 0.4101237556 -0.0133012348
C 3.4030733761 1.502791757 -1.0596657522
O 2.8439880273 2.5996708067 -0.8421135122
O -1.040131088 1.8693914009 0.0614471159
O 3.9215346056 1.1015550184 -2.3360373522
O 1.4394953332 0.1110017333 -1.7316089166
C 3.4756486216 2.0529338087 -3.3776509535
C 2.5823956661 -1.2193759966 1.2992273302
C 3.8120040453 -1.5123282366 2.2455899673
C 4.4144376799 -0.067950988 2.4295231972
C 3.4728829188 0.7734140139 1.4850170829
O 2.15040307 0.1378382918 1.7039563152
H 3.7934583413 -1.7845635021 -0.5145738306
H 4.9302387898 0.2743203255 -0.1254116193
H 1.738083967 -1.9327935107 1.3686731406
H 3.468316826 -1.9334560381 3.2035893638
H 4.5255716258 -2.2149076359 1.7860246064
H 4.3182020136 0.276617529 3.4714614255
H 5.4728958331 -0.0050175301 2.1302515531
H 3.415751066 1.8599556689 1.6898629795
O -1.1278065625 -0.9795044344 0.2681044669
C 0.2801635017 2.145926228 0.6754530486
C -4.4596692307 0.9002819726 1.4410599577
C -5.8683495421 1.0719410123 0.7483932039
C -5.986697165 -0.2850590397 -0.040781577
C -4.6243337533 -0.9819828174 0.349614294
O -4.3970129266 -0.5499995007 1.7444880571
H -3.5356197676 1.9556215043 -0.3137729291
H -3.742353087 -0.0900673125 -1.5028482039
H 0.767409443 1.2238876818 1.0734579967
H -4.3034088129 1.488943375 2.3656233954
H -6.6628433212 1.1680613439 1.5054935961
H -5.9020023693 1.9528267231 0.0875456354
H -6.8392096072 -0.8863636108 0.313135583
H -6.0833211928 -0.1409292868 -1.1288893426
H -4.6196627373 -2.0868130425 0.2722768379
H 0.1862434538 2.8840054596 1.4970602461
H 0.9276360272 2.5607669474 -0.1215656255
H 3.9391543659 1.7141800441 -4.3224717301
H 3.7998838143 3.0897115241 -3.1537700433
H 2.3710007734 2.0413311991 -3.480034368
H 0.4615449217 -2.7123713233 -3.1208019374
H -0.1063959742 -1.1455669967 -2.4194722492
H -1.3234259267 -3.8560483983 -2.0926806266
H -0.7305235074 -3.2722601526 -0.4851488857
$end

$rem
JOBTYPE                   OPT
METHOD                    B3LYP
DFT_D                     d3_op
BASIS                     STO-3G
GEOM_OPT_MAX_CYCLES       100
GEOM_OPT_TOL_GRADIENT     300
GEOM_OPT_TOL_DISPLACEMENT 1200
GEOM_OPT_TOL_ENERGY       100
SYMMETRY                  False
THRESH                    12
SCF_CONVERGENCE           8
MAX_SUB_FILE_NUM          128
MEM_STATIC                400
MEM_TOTAL                 4000
$end
--------------------------------------------------------------

   15   -1510.2965450645      8.93E-09 Convergence criterion met
 Total energy in the final basis set = -1510.29654506
   14   -1510.2927612011      2.68E-09 Convergence criterion met
 Total energy in the final basis set = -1510.29276120
   14   -1510.2888077344      2.36E-09 Convergence criterion met
 Total energy in the final basis set = -1510.28880773
   14   -1510.2900518644      5.24E-09 Convergence criterion met
 Total energy in the final basis set = -1510.29005186
   14   -1510.2943048716      3.06E-09 Convergence criterion met
 Total energy in the final basis set = -1510.29430487
   14   -1510.2943412670      2.23E-09 Convergence criterion met
 Total energy in the final basis set = -1510.29434127
   14   -1510.2952553521      2.52E-09 Convergence criterion met
 Total energy in the final basis set = -1510.29525535
   14   -1510.2960453021      2.39E-09 Convergence criterion met
   13   -1510.3008878674      2.57E-09 Convergence criterion met
 Total energy in the final basis set = -1510.30088787
   12   -1510.3008280403      5.70E-09 Convergence criterion met
 Total energy in the final basis set = -1510.30082804
   12   -1510.3008980462      3.28E-09 Convergence criterion met
 Total energy in the final basis set = -1510.30089805
   11   -1510.3008992223      3.87E-09 Convergence criterion met
 Total energy in the final basis set = -1510.30089922
    9   -1510.3009110669      8.31E-09 Convergence criterion met
 Total energy in the final basis set = -1510.30091107
    9   -1510.3009139384      7.99E-09 Convergence criterion met
 Total energy in the final basis set = -1510.30091394

             Standard Nuclear Orientation (Angstroms)
    I     Atom           X                Y                Z
 ----------------------------------------------------------------
    1      O       1.1559604455     2.3390748896    -0.1963065447
    2      C       1.6301046651     1.5268800050     0.6272025139
    3      C       3.0987072454     0.9568101683     0.6466359951
    4      C       3.2312495651    -0.5969043823     0.3892528045
    5      C       1.9065154020    -1.2815704738    -0.0820258338
    6      O       2.0547151140    -2.6895040370     0.1344185162
    7      C       0.9593777651    -3.4636450037    -0.4952780988
    8      C      -0.4431521133    -3.3225845528     0.2136239809
    9      O      -1.3397249796    -2.5068709204    -0.6362336406
   10      C      -1.7697808435    -1.3333073505     0.0628590998
   11      C      -2.5685416162    -0.4470698822    -0.9428451616
   12      C      -3.7190038237     0.4147549938    -0.2756455471
   13      C      -3.7872314703     0.2603074085     1.2874383407
   14      O      -3.4853449247     1.1096937854     2.1516567500
   15      O       0.9615201623     1.0261471262     1.7814765627
   16      O      -4.3304996550    -1.0353693511     1.5759596795
   17      O      -1.5274305687    -1.1047177404     1.2690436140
   18      C      -4.3037462211    -1.2751836175     3.0358170205
   19      C      -1.6455113002     0.6991073045    -1.5593168804
   20      C      -2.3537610789     1.2456658255    -2.8563280703
   21      C      -3.5405896482     2.0745072810    -2.2314883615
   22      C      -3.2792435836     1.8770375230    -0.6872531410
   23      O      -1.8003051613     1.8188613788    -0.6046739719
   24      H      -2.9608951484    -1.1035428923    -1.7387635777
   25      H      -4.7025615832     0.1427738207    -0.6990429826
   26      H      -0.5763038465     0.4164833270    -1.6454635547
   27      H      -1.6656724538     1.8929701908    -3.4230848333
   28      H      -2.7007595819     0.4330385624    -3.5141952420
   29      H      -3.4734860761     3.1404324494    -2.5009332010
   30      H      -4.5293960875     1.6939808509    -2.5341324184
   31      H      -3.6681956582     2.6725881543    -0.0228544797
   32      O       0.9116725678    -0.7478760880    -0.6189633756
   33      C      -0.3868150156     1.6353578251     1.9156597621
   34      C       3.9780743208     1.5413691995    -0.5367052935
   35      C       5.4973319462     1.3878149949    -0.1397017712
   36      C       5.6863688840    -0.1683536432    -0.2841683782
   37      C       4.2652881536    -0.6030241045    -0.8229724732
   38      O       3.8157043000     0.5518767776    -1.6294762136
   39      H       3.5381520051     1.2085816073     1.6284676382
   40      H       3.6209124592    -1.1416750312     1.2670401435
   41      H      -0.9304641963     1.6824673292     0.9377276354
   42      H       3.6608274414     2.5458179063    -0.8785048803
   43      H       6.1386969474     1.9374987090    -0.8470379618
   44      H       5.7018400979     1.7504955459     0.8800992309
   45      H       6.4696535599    -0.4172649617    -1.0175699903
   46      H       5.9288449368    -0.6584882459     0.6722029902
   47      H       4.2542436669    -1.5323391851    -1.4253227039
   48      H      -0.3008828400     2.6578136421     2.3369411382
   49      H      -0.9436556722     0.9954428551     2.6231260774
   50      H      -4.7889372568    -2.2556370149     3.1956815941
   51      H      -4.8558268444    -0.4903653478     3.5918897135
   52      H      -3.2608408708    -1.3099111550     3.4129631544
   53      H      -0.9042386427    -4.3252972048     0.3332262929
   54      H      -0.3482990246    -2.8367095635     1.2102943015
   55      H       1.3018148148    -4.5164978113    -0.4422145838
   56      H       0.8373644248    -3.1767549167    -1.5632773610
 ----------------------------------------------------------------

    9   -1510.3009137985      4.49E-09 Convergence criterion met
 Total energy in the final basis set = -1510.30091380
 Final energy is   -1510.30091379852
 **  OPTIMIZATION CONVERGED  **

                    Orbital Energies (a.u.)
 --------------------------------------------------------------

 Alpha MOs
 -- Occupied --
-18.938 -18.933 -18.924 -18.902 -18.898 -18.883 -18.882 -18.878
-18.868 -18.847 -10.105 -10.102 -10.093 -10.078 -10.076 -10.071
-10.059 -10.058 -10.057 -10.054 -10.050 -10.036 -10.035 -10.035
-10.024 -10.019 -10.018 -10.017 -10.015 -10.009  -1.020  -1.011
 -1.002  -0.983  -0.973  -0.966  -0.943  -0.937  -0.929  -0.909
 -0.763  -0.757  -0.726  -0.719  -0.711  -0.701  -0.694  -0.657
 -0.631  -0.618  -0.592  -0.576  -0.545  -0.539  -0.535  -0.531
 -0.511  -0.504  -0.481  -0.464  -0.459  -0.450  -0.448  -0.445
 -0.435  -0.429  -0.425  -0.412  -0.406  -0.400  -0.397  -0.390
 -0.378  -0.375  -0.374  -0.361  -0.353  -0.353  -0.349  -0.345
 -0.341  -0.334  -0.329  -0.329  -0.325  -0.321  -0.317  -0.307
 -0.306  -0.302  -0.297  -0.295  -0.295  -0.280  -0.271  -0.269
 -0.265  -0.257  -0.249  -0.246  -0.239  -0.230  -0.216  -0.189
 -0.172  -0.168  -0.160  -0.157  -0.154  -0.146  -0.141  -0.139
 -0.128

          Ground-State Mulliken Net Atomic Charges

     Atom                 Charge (a.u.)
  ----------------------------------------
      1 O                    -0.216739
      2 C                     0.210160
      3 C                    -0.081378
      4 C                    -0.077246
      5 C                     0.218665
      6 O                    -0.172757
      7 C                    -0.050459
      8 C                    -0.056822
      9 O                    -0.171829
     10 C                     0.222098
     11 C                    -0.079009
     12 C                    -0.080690
     13 C                     0.214606
     14 O                    -0.212160
     15 O                    -0.180746
     16 O                    -0.175593
     17 O                    -0.213582
     18 C                    -0.128966
     19 C                     0.024392
     20 C                    -0.142585
     21 C                    -0.143484
     22 C                     0.026930
     23 O                    -0.178477
     24 H                     0.087473
     25 H                     0.084961
     26 H                     0.110149
     27 H                     0.082436
     28 H                     0.073704
     29 H                     0.079949
     30 H                     0.072965
     31 H                     0.090628
     32 O                    -0.213117
     33 C                    -0.151015
     34 C                     0.023948
     35 C                    -0.143534
     36 C                    -0.144125
     37 C                     0.024855
     38 O                    -0.190894
     39 H                     0.082266
     40 H                     0.087469
     41 H                     0.118427
     42 H                     0.090588
     43 H                     0.077066
     44 H                     0.073405
     45 H                     0.077108
     46 H                     0.073497
     47 H                     0.080463
     48 H                     0.068656
     49 H                     0.085724
     50 H                     0.087029
     51 H                     0.088254
     52 H                     0.092278
     53 H                     0.085258
     54 H                     0.105670
     55 H                     0.090269
     56 H                     0.093863
  ----------------------------------------
  Sum of atomic charges =     0.000000

                    Cartesian Multipole Moments
 -----------------------------------------------------------------
    Charge (ESU x 10^10)
                -0.0000
    Dipole Moment (Debye)
         X      -0.1740      Y      -3.0728      Z      -0.4011
       Tot       3.1037
    Quadrupole Moments (Debye-Ang)
        XX    -141.5368     XY      -0.7410     YY    -154.4550
        XZ       6.1455     YZ      -1.2369     ZZ    -159.1167

 Total job time:  93.27s(wall), 4446.10s(cpu)
        *  Thank you very much for using Q-Chem.  Have a nice day.  *
