 Q-Chem 5.0, Q-Chem, Inc., Pleasanton, CA (2017)
 Q-Chem 5.0.1 for Intel X86 EM64T Linux

User input:
--------------------------------------------------------------
$molecule
0  1
O -1.7613968368 1.1534403043 2.3278021934
C -2.0026772821 1.2880771236 1.1083552999
C -3.3851620671 1.0259156697 0.3968212768
C -3.4725666458 -0.3523688737 -0.3766592631
C -2.1209905874 -1.1306104516 -0.457448464
O -2.2458369758 -2.1098153789 -1.5009234004
C -0.9903873812 -2.8800497373 -1.6378723038
C 0.1872442219 -2.0720697861 -2.3130465357
O 1.3729045238 -2.0921795297 -1.4244748071
C 1.8815005359 -0.7678981468 -1.2386546028
C 3.1437846283 -0.8600964575 -0.3197446337
C 3.813457019 0.5456888153 -0.0447098
C 3.3269511317 1.6963375287 -1.0015762448
O 2.6672400956 2.7210243752 -0.7224404471
O -1.0906325341 1.817378845 0.1487940572
O 3.8722070073 1.4235503425 -2.2990177481
O 1.371444902 0.2640286416 -1.730610472
C 3.3666909034 2.4166316026 -3.2730782296
C 2.6725216493 -1.2478652694 1.1502306989
C 3.9408492422 -1.5445204275 2.0431729166
C 4.4599253201 -0.0871890861 2.3416837633
C 3.4526185822 0.7704141072 1.4832702701
O 2.172913689 0.0448395735 1.6718677456
H 3.8515245824 -1.5960422243 -0.7408937426
H 4.9077137035 0.4628651171 -0.1741828638
H 1.8726060205 -2.013485941 1.1787853985
H 3.6477093873 -2.0685913521 2.966469904
H 4.6835917681 -2.1580321779 1.5084624385
H 4.3618788233 0.1627449777 3.4101713731
H 5.5072373759 0.0636733741 2.0351390173
H 3.3398935488 1.8320766199 1.7763773575
O -1.0932211531 -0.9853036497 0.2397280574
C 0.2145996522 2.0766216058 0.8013375021
C -4.5138009003 0.8160746614 1.4889072578
C -5.9290988939 0.8737123497 0.7901421984
C -5.9855664583 -0.535421221 0.0914479919
C -4.5728761535 -1.1211351494 0.4846147769
O -4.360282148 -0.6132425805 1.8557613699
H -3.6019001384 1.8694520445 -0.2823750185
H -3.8320521365 -0.2078990465 -1.4110720344
H 0.7032617004 1.1371335265 1.1514925409
H -4.3968837457 1.4531950411 2.3865359379
H -6.7280818304 0.9849402359 1.5402416317
H -6.0018015919 1.7057518963 0.0715636048
H -6.7886582022 -1.1623807326 0.5107136662
H -6.1216995826 -0.4684715101 -0.999828797
H -4.492780769 -2.2253437993 0.4554804639
H 0.0959057155 2.7618038615 1.6641024804
H 0.8746501191 2.5416086207 0.042607883
H 3.8219413404 2.1518639978 -4.2451501523
H 3.6578245214 3.4502574433 -2.9952664323
H 2.2613104594 2.3689208693 -3.3534730254
H 0.4702058194 -2.5411230717 -3.2788566025
H -0.1019477677 -1.0136451208 -2.4974440436
H -1.2598310309 -3.7553607073 -2.2612871957
H -0.6362813588 -3.2378026489 -0.6456681542
$end

$rem
JOBTYPE                   OPT
METHOD                    B3LYP
DFT_D                     d3_op
BASIS                     STO-3G
GEOM_OPT_MAX_CYCLES       100
GEOM_OPT_TOL_GRADIENT     300
GEOM_OPT_TOL_DISPLACEMENT 1200
GEOM_OPT_TOL_ENERGY       100
SYMMETRY                  False
THRESH                    12
SCF_CONVERGENCE           8
MAX_SUB_FILE_NUM          128
MEM_STATIC                400
MEM_TOTAL                 4000
$end
--------------------------------------------------------------

   16   -1510.2959882928      4.90E-09 Convergence criterion met
 Total energy in the final basis set = -1510.29598829
   14   -1510.2860800163      6.45E-09 Convergence criterion met
 Total energy in the final basis set = -1510.28608002
   14   -1510.2834648244      3.53E-09 Convergence criterion met
 Total energy in the final basis set = -1510.28346482
   14   -1510.2884027540      2.73E-09 Convergence criterion met
 Total energy in the final basis set = -1510.28840275
   14   -1510.2921531499      4.98E-09 Convergence criterion met
 Total energy in the final basis set = -1510.29215315
   14   -1510.2953059171      2.33E-09 Convergence criterion met
 Total energy in the final basis set = -1510.29530592
   13   -1510.2945037593      7.17E-09 Convergence criterion met
 Total energy in the final basis set = -1510.29450376
   15   -1510.2641638754      4.64E-09 Convergence criterion met
   12   -1510.3010968109      3.41E-09 Convergence criterion met
 Total energy in the final basis set = -1510.30109681
   13   -1510.3011174077      1.69E-09 Convergence criterion met
 Total energy in the final basis set = -1510.30111741
   12   -1510.3011279394      3.21E-09 Convergence criterion met
 Total energy in the final basis set = -1510.30112794
   11   -1510.3011352513      4.75E-09 Convergence criterion met
 Total energy in the final basis set = -1510.30113525
    9   -1510.3011377478      6.75E-09 Convergence criterion met
 Total energy in the final basis set = -1510.30113775
    9   -1510.3011281879      8.89E-09 Convergence criterion met
 Total energy in the final basis set = -1510.30112819

             Standard Nuclear Orientation (Angstroms)
    I     Atom           X                Y                Z
 ----------------------------------------------------------------
    1      O       1.1374324193     2.2853022580    -0.4110949915
    2      C       1.6252187378     1.5520486742     0.4761374971
    3      C       3.0973502104     0.9939920161     0.5260750202
    4      C       3.2403233261    -0.5738464340     0.3793330106
    5      C       1.9094473214    -1.3103834902     0.0199831084
    6      O       2.0517241494    -2.6766563107     0.4249739820
    7      C       0.9533733227    -3.5252975193    -0.0949263678
    8      C      -0.4499451682    -3.2932188768     0.5870512748
    9      O      -1.3345719169    -2.5626635451    -0.3487126402
   10      C      -1.7884433378    -1.3364706002     0.2357889806
   11      C      -2.5680442851    -0.5496397909    -0.8629200856
   12      C      -3.7140135526     0.3918955219    -0.3040017328
   13      C      -3.7942158916     0.4138123135     1.2661772508
   14      O      -3.4755423813     1.3454970516     2.0341315713
   15      O       0.9691058309     1.1505280832     1.6751764968
   16      O      -4.3736471976    -0.8277009190     1.6907158831
   17      O      -1.5694000555    -1.0005306372     1.4209862859
   18      C      -4.3599894834    -0.9075169543     3.1681868835
   19      C      -1.6225642352     0.5121845121    -1.5874359672
   20      C      -2.3036013349     0.9184455316    -2.9477863446
   21      C      -3.4978931965     1.8112420960    -2.4366656847
   22      C      -3.2566891078     1.7934257264    -0.8765055516
   23      O      -1.7791459052     1.7337626390    -0.7664850439
   24      H      -2.9612142329    -1.2813004487    -1.5902242029
   25      H      -4.6978337504     0.0823525527    -0.7004660580
   26      H      -0.5557073075     0.2089800048    -1.6222969706
   27      H      -1.6024098389     1.5008986071    -3.5664720721
   28      H      -2.6419919555     0.0421191100    -3.5233587965
   29      H      -3.4289061597     2.8394397193    -2.8253436867
   30      H      -4.4826208784     1.3958677616    -2.7044850978
   31      H      -3.6473157212     2.6643865712    -0.3156933227
   32      O       0.9104385300    -0.8488150933    -0.5728040038
   33      C      -0.3802202334     1.7658007059     1.7684647657
   34      C       3.9525998629     1.4992090991    -0.7092915114
   35      C       5.4801665606     1.3682845677    -0.3373793599
   36      C       5.6698908135    -0.1931661651    -0.4003925442
   37      C       4.2332131782    -0.6592953154    -0.8660082743
   38      O       3.7611195149     0.4419108010    -1.7314883858
   39      H       3.5457452866     1.3199776865     1.4816326396
   40      H       3.6728010501    -1.0440138572     1.2798960459
   41      H      -0.9259629265     1.7410572878     0.7905472494
   42      H       3.6283306449     2.4800643556    -1.1079178545
   43      H       6.1058126182     1.8796308984    -1.0861838331
   44      H       5.7044301279     1.7858337517     0.6569772423
   45      H       6.4282332317    -0.4810193819    -1.1458817259
   46      H       5.9477114944    -0.6288602700     0.5725744123
   47      H       4.2049982700    -1.6249796931    -1.4077340280
   48      H      -0.2946381781     2.8160186476     2.1146224436
   49      H      -0.9340427629     1.1775754083     2.5215594014
   50      H      -4.8753180061    -1.8498427992     3.4303495655
   51      H      -4.8899183142    -0.0506030069     3.6317758285
   52      H      -3.3199779702    -0.9321625519     3.5539599004
   53      H      -0.9209339526    -4.2739293128     0.8089295723
   54      H      -0.3563491258    -2.7083832723     1.5293990749
   55      H       1.2940102033    -4.5619078408     0.1000911729
   56      H       0.8326533732    -3.3848630833    -1.1919748258
 ----------------------------------------------------------------

    9   -1510.3011289883      3.37E-09 Convergence criterion met
 Total energy in the final basis set = -1510.30112899
 Final energy is   -1510.30112898827
 **  OPTIMIZATION CONVERGED  **

                    Orbital Energies (a.u.)
 --------------------------------------------------------------

 Alpha MOs
 -- Occupied --
-18.939 -18.933 -18.924 -18.903 -18.898 -18.883 -18.883 -18.878
-18.867 -18.848 -10.106 -10.102 -10.093 -10.079 -10.076 -10.071
-10.059 -10.058 -10.057 -10.053 -10.051 -10.036 -10.036 -10.034
-10.025 -10.018 -10.018 -10.016 -10.015 -10.009  -1.020  -1.011
 -1.001  -0.983  -0.972  -0.966  -0.944  -0.938  -0.928  -0.909
 -0.762  -0.758  -0.726  -0.719  -0.711  -0.701  -0.694  -0.656
 -0.631  -0.618  -0.592  -0.577  -0.544  -0.539  -0.534  -0.531
 -0.512  -0.504  -0.481  -0.464  -0.459  -0.449  -0.448  -0.444
 -0.436  -0.429  -0.425  -0.412  -0.406  -0.401  -0.397  -0.390
 -0.378  -0.375  -0.374  -0.361  -0.354  -0.352  -0.349  -0.345
 -0.341  -0.334  -0.329  -0.328  -0.325  -0.321  -0.318  -0.307
 -0.305  -0.302  -0.297  -0.295  -0.295  -0.279  -0.271  -0.269
 -0.265  -0.257  -0.249  -0.246  -0.239  -0.230  -0.216  -0.190
 -0.172  -0.168  -0.160  -0.157  -0.154  -0.146  -0.141  -0.139
 -0.128

          Ground-State Mulliken Net Atomic Charges

     Atom                 Charge (a.u.)
  ----------------------------------------
      1 O                    -0.215785
      2 C                     0.209513
      3 C                    -0.081158
      4 C                    -0.077688
      5 C                     0.218584
      6 O                    -0.172226
      7 C                    -0.050337
      8 C                    -0.056664
      9 O                    -0.171589
     10 C                     0.221662
     11 C                    -0.079132
     12 C                    -0.080735
     13 C                     0.214495
     14 O                    -0.212279
     15 O                    -0.180882
     16 O                    -0.175553
     17 O                    -0.213768
     18 C                    -0.128955
     19 C                     0.022920
     20 C                    -0.142567
     21 C                    -0.143569
     22 C                     0.026846
     23 O                    -0.178416
     24 H                     0.087418
     25 H                     0.084833
     26 H                     0.111833
     27 H                     0.082538
     28 H                     0.073593
     29 H                     0.079771
     30 H                     0.072804
     31 H                     0.090214
     32 O                    -0.213594
     33 C                    -0.151540
     34 C                     0.024145
     35 C                    -0.143759
     36 C                    -0.143940
     37 C                     0.025156
     38 O                    -0.190161
     39 H                     0.082432
     40 H                     0.087384
     41 H                     0.118653
     42 H                     0.090756
     43 H                     0.077183
     44 H                     0.073443
     45 H                     0.077160
     46 H                     0.073511
     47 H                     0.080161
     48 H                     0.068927
     49 H                     0.086088
     50 H                     0.086943
     51 H                     0.088219
     52 H                     0.092173
     53 H                     0.085056
     54 H                     0.105724
     55 H                     0.090379
     56 H                     0.093781
  ----------------------------------------
  Sum of atomic charges =     0.000000

                    Cartesian Multipole Moments
 -----------------------------------------------------------------
    Charge (ESU x 10^10)
                -0.0000
    Dipole Moment (Debye)
         X      -0.0628      Y      -3.1275      Z      -0.1072
       Tot       3.1300
    Quadrupole Moments (Debye-Ang)
        XX    -141.3335     XY      -0.1541     YY    -154.6032
        XZ       5.7596     YZ      -1.5481     ZZ    -159.0556

 Total job time:  135.22s(wall), 6448.36s(cpu)
        *  Thank you very much for using Q-Chem.  Have a nice day.  *
