 Q-Chem 5.0, Q-Chem, Inc., Pleasanton, CA (2017)
 Q-Chem 5.0.1 for Intel X86 EM64T Linux

User input:
--------------------------------------------------------------
$molecule
0  1
O -3.94934 -3.66094 2.70899
C -3.26408 -4.56952 2.26188
C -3.36658 -6.02376 2.66595
C -2.30727 -6.55757 3.64409
C -1.36996 -5.53491 4.24717
O -0.27318 -6.16073 4.76759
C 0.66866 -5.25408 5.35083
C 1.4115 -4.49272 4.25783
O 1.28154 -3.07842 4.47176
C 0.88168 -2.35988 3.39336
C 0.79071 -0.8788 3.67404
C 0.35276 -0.01922 2.47921
C -0.26311 -0.76989 1.31564
O -1.42544 -0.67764 0.94817
O -2.67026 -4.38337 1.05508
O 0.64172 -1.31125 0.45214
O 0.65271 -2.9037 2.32511
C 0.32952 -1.9502 -0.72788
C -0.28416 -0.51382 4.71483
C 0.07302 0.82031 5.3656
C -0.1745 1.77055 4.21185
C -0.75733 0.7994 3.17671
O -1.41374 -0.17536 3.95067
H 1.79307 -0.56854 4.04762
H 1.158 0.63497 2.07759
H -0.43515 -1.29506 5.49155
H -0.69176 1.00909 6.15305
H 1.08584 0.87925 5.81904
H -0.93491 2.51738 4.53119
H 0.72787 2.28679 3.81839
H -1.39254 1.35539 2.45225
O -1.71815 -4.40511 4.57373
C -3.07062 -3.41453 0.15849
C -4.6469 -6.29031 3.49016
C -5.01314 -7.77409 3.43809
C -3.9419 -8.35856 4.33169
C -3.2204 -7.08109 4.76889
O -4.24253 -6.11797 4.82437
H -3.43414 -6.62632 1.73147
H -1.69364 -7.37524 3.20209
H -3.01324 -2.41184 0.61531
H -5.5161 -5.68025 3.1591
H -5.99822 -7.89557 3.9431
H -5.06854 -8.20511 2.41534
H -4.4359 -8.83293 5.20896
H -3.25776 -9.08576 3.8433
H -2.66747 -7.25949 5.71802
H -4.12209 -3.60157 -0.1477
H -2.43845 -3.46139 -0.74909
H 1.26857 -2.25344 -1.2343
H -0.23656 -1.26984 -1.39925
H -0.25938 -2.86305 -0.51557
H 2.49393 -4.71698 4.37864
H 1.16697 -4.89529 3.24985
H 1.41378 -5.88427 5.88338
H 0.22154 -4.59857 6.1327
$end

$opt
CONSTRAINT
tors           1           2           3           4    -101.695
tors           3           4           5           6    -162.593
tors           4           5           6           7    +179.600
tors           5           6           7           8     -73.421
tors           6           7           8           9    +125.092
tors           7           8           9          10    -129.881
tors           8           9          10          11    -178.852
tors           9          10          11          12    +179.510
tors          11          12          13          14    +113.677
ENDCONSTRAINT
$end

$rem
JOBTYPE                   OPT
METHOD                    B3LYP
DFT_D                     d3_op
BASIS                     STO-3G
GEOM_OPT_MAX_CYCLES       100
GEOM_OPT_TOL_GRADIENT     300
GEOM_OPT_TOL_DISPLACEMENT 1200
GEOM_OPT_TOL_ENERGY       100
SYMMETRY                  False
THRESH                    12
SCF_CONVERGENCE           8
MAX_SUB_FILE_NUM          128
MEM_STATIC                400
MEM_TOTAL                 4000
$end
--------------------------------------------------------------

   15   -1510.1364559783      6.62E-09 Convergence criterion met
 Total energy in the final basis set = -1510.13645598
   14   -1510.2077057973      7.50E-09 Convergence criterion met
 Total energy in the final basis set = -1510.20770580
   14   -1510.2465813358      7.32E-09 Convergence criterion met
 Total energy in the final basis set = -1510.24658134
   15   -1510.1968039633      4.77E-09 Convergence criterion met
 Total energy in the final basis set = -1510.19680396
   15   -1510.2712359521      3.25E-09 Convergence criterion met
 Total energy in the final basis set = -1510.27123595
   13   -1510.2777113486      4.20E-09 Convergence criterion met
 Total energy in the final basis set = -1510.27771135
   13   -1510.2823666888      3.63E-09 Convergence criterion met
 Total energy in the final basis set = -1510.28236669
   13   -1510.2852269011      3.09E-09 Convergence criterion met
    9   -1510.2959914201      3.95E-09 Convergence criterion met
 Total energy in the final basis set = -1510.29599142
    9   -1510.2959945531      3.59E-09 Convergence criterion met
 Total energy in the final basis set = -1510.29599455
    9   -1510.2959970020      4.50E-09 Convergence criterion met
 Total energy in the final basis set = -1510.29599700
    9   -1510.2959985462      3.84E-09 Convergence criterion met
 Total energy in the final basis set = -1510.29599855
    9   -1510.2959991311      2.33E-09 Convergence criterion met
 Total energy in the final basis set = -1510.29599913
    8   -1510.2959997221      9.74E-09 Convergence criterion met
 Total energy in the final basis set = -1510.29599972

             Standard Nuclear Orientation (Angstroms)
    I     Atom           X                Y                Z
 ----------------------------------------------------------------
    1      O      -1.7613968368     1.1534403043     2.3278021934
    2      C      -2.0026772821     1.2880771236     1.1083552999
    3      C      -3.3851620671     1.0259156697     0.3968212768
    4      C      -3.4725666458    -0.3523688737    -0.3766592631
    5      C      -2.1209905874    -1.1306104516    -0.4574484640
    6      O      -2.2458369758    -2.1098153789    -1.5009234004
    7      C      -0.9903873812    -2.8800497373    -1.6378723038
    8      C       0.1872442219    -2.0720697861    -2.3130465357
    9      O       1.3729045238    -2.0921795297    -1.4244748071
   10      C       1.8815005359    -0.7678981468    -1.2386546028
   11      C       3.1437846283    -0.8600964575    -0.3197446337
   12      C       3.8134570190     0.5456888153    -0.0447098000
   13      C       3.3269511317     1.6963375287    -1.0015762448
   14      O       2.6672400956     2.7210243752    -0.7224404471
   15      O      -1.0906325341     1.8173788450     0.1487940572
   16      O       3.8722070073     1.4235503425    -2.2990177481
   17      O       1.3714449020     0.2640286416    -1.7306104720
   18      C       3.3666909034     2.4166316026    -3.2730782296
   19      C       2.6725216493    -1.2478652694     1.1502306989
   20      C       3.9408492422    -1.5445204275     2.0431729166
   21      C       4.4599253201    -0.0871890861     2.3416837633
   22      C       3.4526185822     0.7704141072     1.4832702701
   23      O       2.1729136890     0.0448395735     1.6718677456
   24      H       3.8515245824    -1.5960422243    -0.7408937426
   25      H       4.9077137035     0.4628651171    -0.1741828638
   26      H       1.8726060205    -2.0134859410     1.1787853985
   27      H       3.6477093873    -2.0685913521     2.9664699040
   28      H       4.6835917681    -2.1580321779     1.5084624385
   29      H       4.3618788233     0.1627449777     3.4101713731
   30      H       5.5072373759     0.0636733741     2.0351390173
   31      H       3.3398935488     1.8320766199     1.7763773575
   32      O      -1.0932211531    -0.9853036497     0.2397280574
   33      C       0.2145996522     2.0766216058     0.8013375021
   34      C      -4.5138009003     0.8160746614     1.4889072578
   35      C      -5.9290988939     0.8737123497     0.7901421984
   36      C      -5.9855664583    -0.5354212210     0.0914479919
   37      C      -4.5728761535    -1.1211351494     0.4846147769
   38      O      -4.3602821480    -0.6132425805     1.8557613699
   39      H      -3.6019001384     1.8694520445    -0.2823750185
   40      H      -3.8320521365    -0.2078990465    -1.4110720344
   41      H       0.7032617004     1.1371335265     1.1514925409
   42      H      -4.3968837457     1.4531950411     2.3865359379
   43      H      -6.7280818304     0.9849402359     1.5402416317
   44      H      -6.0018015919     1.7057518963     0.0715636048
   45      H      -6.7886582022    -1.1623807326     0.5107136662
   46      H      -6.1216995826    -0.4684715101    -0.9998287970
   47      H      -4.4927807690    -2.2253437993     0.4554804639
   48      H       0.0959057155     2.7618038615     1.6641024804
   49      H       0.8746501191     2.5416086207     0.0426078830
   50      H       3.8219413404     2.1518639978    -4.2451501523
   51      H       3.6578245214     3.4502574433    -2.9952664323
   52      H       2.2613104594     2.3689208693    -3.3534730254
   53      H       0.4702058194    -2.5411230717    -3.2788566025
   54      H      -0.1019477677    -1.0136451208    -2.4974440436
   55      H      -1.2598310309    -3.7553607073    -2.2612871957
   56      H      -0.6362813588    -3.2378026489    -0.6456681542
 ----------------------------------------------------------------

    8   -1510.2959999338      9.48E-09 Convergence criterion met
 Total energy in the final basis set = -1510.29599993
 Final energy is   -1510.29599993384
 **  OPTIMIZATION CONVERGED  **

                    Orbital Energies (a.u.)
 --------------------------------------------------------------

 Alpha MOs
 -- Occupied --
-18.941 -18.935 -18.927 -18.899 -18.899 -18.890 -18.881 -18.880
-18.872 -18.840 -10.109 -10.100 -10.099 -10.077 -10.073 -10.071
-10.065 -10.062 -10.059 -10.056 -10.048 -10.045 -10.039 -10.032
-10.023 -10.022 -10.022 -10.015 -10.013 -10.005  -1.022  -1.013
 -1.005  -0.979  -0.977  -0.962  -0.946  -0.938  -0.932  -0.903
 -0.768  -0.755  -0.729  -0.720  -0.712  -0.703  -0.693  -0.659
 -0.629  -0.618  -0.594  -0.576  -0.549  -0.541  -0.537  -0.528
 -0.515  -0.504  -0.483  -0.466  -0.460  -0.456  -0.447  -0.444
 -0.434  -0.434  -0.425  -0.412  -0.408  -0.402  -0.397  -0.390
 -0.380  -0.374  -0.371  -0.366  -0.355  -0.353  -0.349  -0.347
 -0.339  -0.335  -0.329  -0.327  -0.325  -0.320  -0.315  -0.314
 -0.308  -0.306  -0.303  -0.294  -0.291  -0.280  -0.276  -0.269
 -0.262  -0.257  -0.253  -0.248  -0.239  -0.227  -0.218  -0.190
 -0.174  -0.171  -0.166  -0.155  -0.154  -0.150  -0.139  -0.137
 -0.122

          Ground-State Mulliken Net Atomic Charges

     Atom                 Charge (a.u.)
  ----------------------------------------
      1 O                    -0.219176
      2 C                     0.211388
      3 C                    -0.081079
      4 C                    -0.079314
      5 C                     0.211678
      6 O                    -0.173845
      7 C                    -0.050711
      8 C                    -0.056400
      9 O                    -0.171931
     10 C                     0.221379
     11 C                    -0.076481
     12 C                    -0.081181
     13 C                     0.221233
     14 O                    -0.214759
     15 O                    -0.178500
     16 O                    -0.174666
     17 O                    -0.204454
     18 C                    -0.128525
     19 C                     0.028139
     20 C                    -0.144072
     21 C                    -0.142333
     22 C                     0.025449
     23 O                    -0.182272
     24 H                     0.089286
     25 H                     0.085381
     26 H                     0.093301
     27 H                     0.081066
     28 H                     0.074124
     29 H                     0.080750
     30 H                     0.073965
     31 H                     0.092227
     32 O                    -0.204041
     33 C                    -0.154948
     34 C                     0.025627
     35 C                    -0.145058
     36 C                    -0.142991
     37 C                     0.025622
     38 O                    -0.187238
     39 H                     0.082210
     40 H                     0.084803
     41 H                     0.103364
     42 H                     0.088457
     43 H                     0.076811
     44 H                     0.072743
     45 H                     0.076847
     46 H                     0.072647
     47 H                     0.081681
     48 H                     0.071518
     49 H                     0.097485
     50 H                     0.087371
     51 H                     0.087948
     52 H                     0.094241
     53 H                     0.084128
     54 H                     0.105950
     55 H                     0.089473
     56 H                     0.095683
  ----------------------------------------
  Sum of atomic charges =     0.000000

                    Cartesian Multipole Moments
 -----------------------------------------------------------------
    Charge (ESU x 10^10)
                -0.0000
    Dipole Moment (Debye)
         X       1.7425      Y      -2.0009      Z      -3.1807
       Tot       4.1421
    Quadrupole Moments (Debye-Ang)
        XX    -138.3657     XY      -2.8350     YY    -155.2895
        XZ       7.3788     YZ       1.2172     ZZ    -160.5012

 Total job time:  88.75s(wall), 4230.39s(cpu)
        *  Thank you very much for using Q-Chem.  Have a nice day.  *
