 Q-Chem 5.0, Q-Chem, Inc., Pleasanton, CA (2017)
 Q-Chem 5.0.1 for Intel X86 EM64T Linux

User input:
--------------------------------------------------------------
$molecule
0  1
O -1.6396875958 1.3012144245 2.1982663846
C -1.9119986805 1.3794156103 0.9809973866
C -3.3132649882 1.120386281 0.3062974486
C -3.4446589378 -0.2508037328 -0.4723366246
C -2.164119046 -1.1435733711 -0.3954962264
O -2.2925331685 -2.1838800803 -1.3774700205
C -1.0565829762 -2.9981312904 -1.4232378834
C 0.1440869777 -2.2442396268 -2.1158100214
O 1.2922021294 -2.2385753837 -1.1771765224
C 1.8959542754 -0.9457067568 -1.1238989424
C 3.0987769638 -1.0113427917 -0.125719169
C 3.8600827751 0.3682282179 0.0029372452
C 3.4575408747 1.435027573 -1.0826230597
O 2.923612776 2.5510178049 -0.9035487773
O -1.0194523239 1.8323616674 -0.035962984
O 3.9787906949 0.9816066918 -2.3404177598
O 1.4755081079 0.0593937031 -1.7415317007
C 3.5652417164 1.9092224609 -3.4161227709
C 2.5430264771 -1.1796471486 1.3551258988
C 3.7500906376 -1.4738749766 2.3296291775
C 4.3946735467 -0.042434869 2.4680517788
C 3.4890974104 0.7926255313 1.48381547
O 2.1461840505 0.2028001048 1.7073885754
H 3.7679629858 -1.8416111176 -0.4134761628
H 4.9484536971 0.2030833889 -0.0949673058
H 1.6769258894 -1.8650660201 1.4371412658
H 3.3803072929 -1.8473715549 3.2976171718
H 4.4478681229 -2.2145451218 1.907261142
H 4.2996283547 0.342354321 3.4959479999
H 5.4574322637 -0.0221143697 2.178111868
H 3.460872245 1.8867908854 1.6508075623
O -1.1718212097 -1.0138481133 0.3539970073
C 0.3007068319 2.1558478423 0.5550376771
C -4.4501453282 0.9531458819 1.3985746782
C -5.8503471766 1.163775594 0.7004899728
C -5.9916348666 -0.1819313728 -0.1043032912
C -4.6595198139 -0.9247001306 0.307555354
O -4.4339824436 -0.4976899906 1.7045004493
H -3.5236787759 1.9642877074 -0.3746664373
H -3.6929150599 -0.0983601875 -1.53779556
H 0.8010019166 1.2631434059 1.0022697378
H -4.2775132999 1.538672572 2.3223370449
H -6.6470102182 1.2670839448 1.454397789
H -5.8619540502 2.0526812823 0.0498072659
H -6.8699727713 -0.7603465847 0.2234755289
H -6.0588103771 -0.0241447716 -1.1927429188
H -4.6932109989 -2.0292255246 0.2327003922
H 0.2026553617 2.9387462718 1.3335102014
H 0.9378166287 2.533286486 -0.2679527828
H 4.0395134291 1.5369586866 -4.3428118064
H 3.9008594433 2.9471720533 -3.2157769351
H 2.462412032 1.9105226408 -3.5373026515
H 0.4495009744 -2.7685341758 -3.0460242566
H -0.1237648891 -1.1945835824 -2.3678654138
H -1.3286546995 -3.9055108957 -1.9974610005
H -0.735578139 -3.2944015428 -0.4003522481
$end

$rem
JOBTYPE                   OPT
METHOD                    B3LYP
DFT_D                     d3_op
BASIS                     STO-3G
GEOM_OPT_MAX_CYCLES       100
GEOM_OPT_TOL_GRADIENT     300
GEOM_OPT_TOL_DISPLACEMENT 1200
GEOM_OPT_TOL_ENERGY       100
SYMMETRY                  False
THRESH                    12
SCF_CONVERGENCE           8
MAX_SUB_FILE_NUM          128
MEM_STATIC                400
MEM_TOTAL                 4000
$end
--------------------------------------------------------------

   16   -1510.2964144620      5.36E-09 Convergence criterion met
 Total energy in the final basis set = -1510.29641446
   14   -1510.2947202955      1.74E-09 Convergence criterion met
 Total energy in the final basis set = -1510.29472030
   14   -1510.2944323343      1.97E-09 Convergence criterion met
 Total energy in the final basis set = -1510.29443233
   14   -1510.2494874429      6.88E-09 Convergence criterion met
 Total energy in the final basis set = -1510.24948744
   14   -1510.2896754406      6.34E-09 Convergence criterion met
 Total energy in the final basis set = -1510.28967544
   14   -1510.2916374763      3.35E-09 Convergence criterion met
 Total energy in the final basis set = -1510.29163748
   14   -1510.2931946829      3.17E-09 Convergence criterion met
 Total energy in the final basis set = -1510.29319468
   13   -1510.2961627785      8.53E-09 Convergence criterion met
   12   -1510.3008357593      9.87E-09 Convergence criterion met
 Total energy in the final basis set = -1510.30083576
   11   -1510.3008438084      6.11E-09 Convergence criterion met
 Total energy in the final basis set = -1510.30084381
   11   -1510.3008450035      3.40E-09 Convergence criterion met
 Total energy in the final basis set = -1510.30084500
   11   -1510.3008414951      3.42E-09 Convergence criterion met
 Total energy in the final basis set = -1510.30084150
   10   -1510.3008461929      7.34E-09 Convergence criterion met
 Total energy in the final basis set = -1510.30084619
    9   -1510.3008463517      5.11E-09 Convergence criterion met
 Total energy in the final basis set = -1510.30084635

             Standard Nuclear Orientation (Angstroms)
    I     Atom           X                Y                Z
 ----------------------------------------------------------------
    1      O       1.1372126723     2.3368942450    -0.0829468692
    2      C       1.6102785184     1.4971773186     0.7131072874
    3      C       3.0811670899     0.9327571552     0.7217799439
    4      C       3.2208063322    -0.6125531612     0.4213236866
    5      C       1.9057068824    -1.2807987865    -0.0984074983
    6      O       2.0491907894    -2.6953521884     0.0718968245
    7      C       0.9664856772    -3.4459075078    -0.6068207625
    8      C      -0.4496617842    -3.3299907102     0.0791703463
    9      O      -1.3280092132    -2.4773932664    -0.7533551819
   10      C      -1.7639658150    -1.3301049331    -0.0151651311
   11      C      -2.5401215394    -0.3969944608    -0.9963930770
   12      C      -3.7124644696     0.4243400374    -0.3163598753
   13      C      -3.8116571152     0.1980893388     1.2362728266
   14      O      -3.5332654515     1.0083887198     2.1446610785
   15      O       0.9374444104     0.9493494556     1.8432373870
   16      O      -4.3519226916    -1.1126987500     1.4532102557
   17      O      -1.5421112474    -1.1529180837     1.2036421642
   18      C      -4.3553443085    -1.4195325227     2.9006976014
   19      C      -1.6069494314     0.7835570857    -1.5278350448
   20      C      -2.2799523557     1.3906062346    -2.8163945097
   21      C      -3.4924186011     2.1774922325    -2.1871612710
   22      C      -3.2743150096     1.9072100742    -0.6476750195
   23      O      -1.7980365545     1.8537092386    -0.5242989987
   24      H      -2.9069825747    -1.0140549493    -1.8347964136
   25      H      -4.6846444640     0.1642894915    -0.7723254785
   26      H      -0.5337832028     0.5108338540    -1.5958467379
   27      H      -1.5800975003     2.0715558036    -3.3264514623
   28      H      -2.5981868991     0.6109380427    -3.5265700561
   29      H      -3.4279013987     3.2559371903    -2.4018074544
   30      H      -4.4683285009     1.8048423153    -2.5375833737
   31      H      -3.6879475235     2.6680248999     0.0420636934
   32      O       0.9216206560    -0.7282296565    -0.6360871806
   33      C      -0.4128961979     1.5496452868     1.9977275994
   34      C       3.9674509599     1.5539107165    -0.4379915550
   35      C       5.4833708440     1.4037354316    -0.0275703012
   36      C       5.6844693119    -0.1480538498    -0.1995500560
   37      C       4.2758060465    -0.5808213549    -0.7715251057
   38      O       3.8281999262     0.5899579543    -1.5566123821
   39      H       3.5142772730     1.1575860596     1.7129906702
   40      H       3.5929087388    -1.1840899886     1.2895762323
   41      H      -0.9501715707     1.6441331486     1.0197273921
   42      H       3.6448720363     2.5636218348    -0.7587524444
   43      H       6.1278755168     1.9708300179    -0.7182058711
   44      H       5.6752087987     1.7487127917     1.0007981566
   45      H       6.4820641134    -0.3778994998    -0.9236078363
   46      H       5.9134029924    -0.6551246376     0.7513632054
   47      H       4.2823558381    -1.4950367158    -1.3966044350
   48      H      -0.3304050671     2.5503098990     2.4691241643
   49      H      -0.9732050397     0.8755025115     2.6698062161
   50      H      -4.8401047230    -2.4076031543     3.0051579853
   51      H      -4.9219369644    -0.6625535120     3.4802479120
   52      H      -3.3206420206    -1.4689481816     3.2984475612
   53      H      -0.9149140078    -4.3355640107     0.1482044455
   54      H      -0.3737047982    -2.8856520027     1.0965759176
   55      H       1.3081129373    -4.5001626414    -0.5847202523
   56      H       0.8657428602    -3.1206614923    -1.6659637093
 ----------------------------------------------------------------

    8   -1510.3008463699      8.43E-09 Convergence criterion met
 Total energy in the final basis set = -1510.30084637
 Final energy is   -1510.30084636990
 **  OPTIMIZATION CONVERGED  **

                    Orbital Energies (a.u.)
 --------------------------------------------------------------

 Alpha MOs
 -- Occupied --
-18.938 -18.933 -18.924 -18.902 -18.898 -18.883 -18.882 -18.877
-18.868 -18.848 -10.106 -10.102 -10.093 -10.078 -10.076 -10.071
-10.059 -10.058 -10.057 -10.054 -10.050 -10.036 -10.035 -10.035
-10.024 -10.018 -10.018 -10.016 -10.015 -10.009  -1.020  -1.011
 -1.002  -0.983  -0.973  -0.966  -0.943  -0.937  -0.929  -0.909
 -0.762  -0.757  -0.726  -0.719  -0.711  -0.701  -0.694  -0.657
 -0.631  -0.618  -0.592  -0.576  -0.544  -0.539  -0.535  -0.531
 -0.511  -0.504  -0.481  -0.464  -0.459  -0.450  -0.449  -0.444
 -0.435  -0.429  -0.425  -0.412  -0.406  -0.400  -0.397  -0.390
 -0.378  -0.375  -0.374  -0.361  -0.353  -0.353  -0.349  -0.345
 -0.341  -0.334  -0.329  -0.328  -0.325  -0.321  -0.317  -0.307
 -0.305  -0.302  -0.297  -0.295  -0.294  -0.280  -0.271  -0.269
 -0.265  -0.257  -0.249  -0.246  -0.239  -0.230  -0.216  -0.189
 -0.172  -0.168  -0.160  -0.157  -0.154  -0.146  -0.141  -0.139
 -0.128

          Ground-State Mulliken Net Atomic Charges

     Atom                 Charge (a.u.)
  ----------------------------------------
      1 O                    -0.216824
      2 C                     0.210140
      3 C                    -0.081374
      4 C                    -0.077124
      5 C                     0.218922
      6 O                    -0.172658
      7 C                    -0.050461
      8 C                    -0.056923
      9 O                    -0.171685
     10 C                     0.221976
     11 C                    -0.079075
     12 C                    -0.080663
     13 C                     0.214610
     14 O                    -0.212067
     15 O                    -0.180793
     16 O                    -0.175635
     17 O                    -0.213945
     18 C                    -0.129005
     19 C                     0.024211
     20 C                    -0.142555
     21 C                    -0.143574
     22 C                     0.027005
     23 O                    -0.178654
     24 H                     0.087439
     25 H                     0.084975
     26 H                     0.110655
     27 H                     0.082502
     28 H                     0.073719
     29 H                     0.079910
     30 H                     0.072998
     31 H                     0.090495
     32 O                    -0.213225
     33 C                    -0.151118
     34 C                     0.023821
     35 C                    -0.143404
     36 C                    -0.144201
     37 C                     0.024763
     38 O                    -0.191048
     39 H                     0.082272
     40 H                     0.087626
     41 H                     0.118836
     42 H                     0.090588
     43 H                     0.077069
     44 H                     0.073425
     45 H                     0.077140
     46 H                     0.073539
     47 H                     0.080515
     48 H                     0.068604
     49 H                     0.085593
     50 H                     0.087022
     51 H                     0.088286
     52 H                     0.092175
     53 H                     0.085248
     54 H                     0.105708
     55 H                     0.090271
     56 H                     0.093951
  ----------------------------------------
  Sum of atomic charges =     0.000000

                    Cartesian Multipole Moments
 -----------------------------------------------------------------
    Charge (ESU x 10^10)
                -0.0000
    Dipole Moment (Debye)
         X      -0.1221      Y      -3.0153      Z      -0.5254
       Tot       3.0632
    Quadrupole Moments (Debye-Ang)
        XX    -141.7880     XY      -0.8277     YY    -154.2300
        XZ       6.3269     YZ      -1.2076     ZZ    -159.1623

 Total job time:  98.30s(wall), 4689.34s(cpu)
        *  Thank you very much for using Q-Chem.  Have a nice day.  *
