 Q-Chem 5.0, Q-Chem, Inc., Pleasanton, CA (2017)
 Q-Chem 5.0.1 for Intel X86 EM64T Linux

User input:
--------------------------------------------------------------
$molecule
0  1
O -3.94934 -3.66094 2.70899
C -3.26408 -4.56952 2.26188
C -3.36658 -6.02376 2.66595
C -2.26333 -6.57783 3.5823
C -1.27854 -5.57216 4.13629
O -0.20569 -6.22233 4.67637
C 0.82054 -5.33399 5.1313
C 1.56566 -4.73833 3.9413
O 1.54239 -3.30426 4.01731
C 1.24969 -2.66359 2.85842
C 1.24724 -1.16021 3.00165
C 0.93699 -0.38753 1.7113
C 0.33514 -1.20051 0.58278
O -0.77158 -1.02432 0.09423
O -2.48756 -4.32405 1.1811
O 1.24442 -1.90224 -0.15261
O 1.03546 -3.29051 1.83413
C 0.96806 -2.5882 -1.31686
C 0.1442 -0.63111 3.93732
C 0.55899 0.73029 4.48986
C 0.44695 1.58513 3.24387
C -0.14693 0.56507 2.26344
O -0.91378 -0.28899 3.07759
H 2.24674 -0.88201 3.40688
H 1.81263 0.16457 1.30375
H -0.10594 -1.32632 4.76831
H -0.23422 1.04082 5.20751
H 1.54566 0.7635 5.00002
H -0.27239 2.40885 3.44872
H 1.40565 1.99939 2.86321
H -0.69905 1.09417 1.45569
O -1.36096 -4.35307 4.04033
C -2.6659 -3.21241 0.39121
C -4.58763 -6.27745 3.587
C -4.99576 -7.74981 3.52841
C -3.86383 -8.38762 4.3043
C -3.09355 -7.13895 4.74302
O -4.08721 -6.15725 4.89648
H -3.5284 -6.61511 1.73644
H -1.66838 -7.34418 3.03576
H -2.56869 -2.29464 1.00587
H -5.46602 -5.64144 3.34013
H -5.93178 -7.85309 4.12322
H -5.16477 -8.15848 2.50902
H -4.29309 -8.91233 5.1867
H -3.22164 -9.08375 3.72229
H -2.47732 -7.35753 5.64309
H -3.68007 -3.23145 -0.06249
H -1.92625 -3.22448 -0.42941
H 1.9061 -3.03679 -1.70303
H 0.56033 -1.89665 -2.08462
H 0.24821 -3.40715 -1.11829
H 2.63369 -5.02746 4.05305
H 1.2542 -5.21826 2.98689
H 1.54147 -5.95856 5.70248
H 0.44353 -4.5718 5.85134
$end

$opt
CONSTRAINT
tors           1           2           3           4    -104.984
tors           3           4           5           6    -166.738
tors           4           5           6           7    +175.506
tors           5           6           7           8     -73.421
tors           6           7           8           9    +125.092
tors           7           8           9          10    -134.914
tors           8           9          10          11    -179.723
tors           9          10          11          12    +179.316
tors          11          12          13          14    +117.484
ENDCONSTRAINT
$end

$rem
JOBTYPE                   OPT
METHOD                    B3LYP
DFT_D                     d3_op
BASIS                     STO-3G
GEOM_OPT_MAX_CYCLES       100
GEOM_OPT_TOL_GRADIENT     300
GEOM_OPT_TOL_DISPLACEMENT 1200
GEOM_OPT_TOL_ENERGY       100
SYMMETRY                  False
THRESH                    12
SCF_CONVERGENCE           8
MAX_SUB_FILE_NUM          128
MEM_STATIC                400
MEM_TOTAL                 4000
$end
--------------------------------------------------------------

   15   -1510.1466636092      6.36E-09 Convergence criterion met
 Total energy in the final basis set = -1510.14666361
   14   -1510.2159049181      2.18E-09 Convergence criterion met
 Total energy in the final basis set = -1510.21590492
   15   -1510.2413157611      3.28E-09 Convergence criterion met
 Total energy in the final basis set = -1510.24131576
   14   -1510.2710062178      3.37E-09 Convergence criterion met
 Total energy in the final basis set = -1510.27100622
   13   -1510.2799469122      6.80E-09 Convergence criterion met
 Total energy in the final basis set = -1510.27994691
   13   -1510.2859994688      5.01E-09 Convergence criterion met
 Total energy in the final basis set = -1510.28599947
   13   -1510.2898386452      3.96E-09 Convergence criterion met
 Total energy in the final basis set = -1510.28983865
   13   -1510.2915650221      3.07E-09 Convergence criterion met
   11   -1510.2962480294      6.68E-09 Convergence criterion met
 Total energy in the final basis set = -1510.29624803
   10   -1510.2963370539      7.70E-09 Convergence criterion met
 Total energy in the final basis set = -1510.29633705
   10   -1510.2963911184      6.41E-09 Convergence criterion met
 Total energy in the final basis set = -1510.29639112
   11   -1510.2964159911      5.59E-09 Convergence criterion met
 Total energy in the final basis set = -1510.29641599
    9   -1510.2964247382      8.24E-09 Convergence criterion met
 Total energy in the final basis set = -1510.29642474
    9   -1510.2964263893      5.25E-09 Convergence criterion met
 Total energy in the final basis set = -1510.29642639

             Standard Nuclear Orientation (Angstroms)
    I     Atom           X                Y                Z
 ----------------------------------------------------------------
    1      O      -1.6396875958     1.3012144245     2.1982663846
    2      C      -1.9119986805     1.3794156103     0.9809973866
    3      C      -3.3132649882     1.1203862810     0.3062974486
    4      C      -3.4446589378    -0.2508037328    -0.4723366246
    5      C      -2.1641190460    -1.1435733711    -0.3954962264
    6      O      -2.2925331685    -2.1838800803    -1.3774700205
    7      C      -1.0565829762    -2.9981312904    -1.4232378834
    8      C       0.1440869777    -2.2442396268    -2.1158100214
    9      O       1.2922021294    -2.2385753837    -1.1771765224
   10      C       1.8959542754    -0.9457067568    -1.1238989424
   11      C       3.0987769638    -1.0113427917    -0.1257191690
   12      C       3.8600827751     0.3682282179     0.0029372452
   13      C       3.4575408747     1.4350275730    -1.0826230597
   14      O       2.9236127760     2.5510178049    -0.9035487773
   15      O      -1.0194523239     1.8323616674    -0.0359629840
   16      O       3.9787906949     0.9816066918    -2.3404177598
   17      O       1.4755081079     0.0593937031    -1.7415317007
   18      C       3.5652417164     1.9092224609    -3.4161227709
   19      C       2.5430264771    -1.1796471486     1.3551258988
   20      C       3.7500906376    -1.4738749766     2.3296291775
   21      C       4.3946735467    -0.0424348690     2.4680517788
   22      C       3.4890974104     0.7926255313     1.4838154700
   23      O       2.1461840505     0.2028001048     1.7073885754
   24      H       3.7679629858    -1.8416111176    -0.4134761628
   25      H       4.9484536971     0.2030833889    -0.0949673058
   26      H       1.6769258894    -1.8650660201     1.4371412658
   27      H       3.3803072929    -1.8473715549     3.2976171718
   28      H       4.4478681229    -2.2145451218     1.9072611420
   29      H       4.2996283547     0.3423543210     3.4959479999
   30      H       5.4574322637    -0.0221143697     2.1781118680
   31      H       3.4608722450     1.8867908854     1.6508075623
   32      O      -1.1718212097    -1.0138481133     0.3539970073
   33      C       0.3007068319     2.1558478423     0.5550376771
   34      C      -4.4501453282     0.9531458819     1.3985746782
   35      C      -5.8503471766     1.1637755940     0.7004899728
   36      C      -5.9916348666    -0.1819313728    -0.1043032912
   37      C      -4.6595198139    -0.9247001306     0.3075553540
   38      O      -4.4339824436    -0.4976899906     1.7045004493
   39      H      -3.5236787759     1.9642877074    -0.3746664373
   40      H      -3.6929150599    -0.0983601875    -1.5377955600
   41      H       0.8010019166     1.2631434059     1.0022697378
   42      H      -4.2775132999     1.5386725720     2.3223370449
   43      H      -6.6470102182     1.2670839448     1.4543977890
   44      H      -5.8619540502     2.0526812823     0.0498072659
   45      H      -6.8699727713    -0.7603465847     0.2234755289
   46      H      -6.0588103771    -0.0241447716    -1.1927429188
   47      H      -4.6932109989    -2.0292255246     0.2327003922
   48      H       0.2026553617     2.9387462718     1.3335102014
   49      H       0.9378166287     2.5332864860    -0.2679527828
   50      H       4.0395134291     1.5369586866    -4.3428118064
   51      H       3.9008594433     2.9471720533    -3.2157769351
   52      H       2.4624120320     1.9105226408    -3.5373026515
   53      H       0.4495009744    -2.7685341758    -3.0460242566
   54      H      -0.1237648891    -1.1945835824    -2.3678654138
   55      H      -1.3286546995    -3.9055108957    -1.9974610005
   56      H      -0.7355781390    -3.2944015428    -0.4003522481
 ----------------------------------------------------------------

    9   -1510.2964263749      1.88E-09 Convergence criterion met
 Total energy in the final basis set = -1510.29642637
 Final energy is   -1510.29642637486
 **  OPTIMIZATION CONVERGED  **

                    Orbital Energies (a.u.)
 --------------------------------------------------------------

 Alpha MOs
 -- Occupied --
-18.943 -18.936 -18.924 -18.901 -18.899 -18.890 -18.882 -18.880
-18.868 -18.842 -10.110 -10.101 -10.097 -10.078 -10.075 -10.072
-10.065 -10.062 -10.057 -10.056 -10.049 -10.044 -10.038 -10.033
-10.024 -10.022 -10.022 -10.016 -10.013 -10.008  -1.023  -1.014
 -1.003  -0.979  -0.977  -0.963  -0.947  -0.939  -0.929  -0.905
 -0.768  -0.755  -0.730  -0.720  -0.712  -0.703  -0.693  -0.658
 -0.630  -0.619  -0.594  -0.576  -0.549  -0.541  -0.537  -0.529
 -0.515  -0.505  -0.484  -0.466  -0.460  -0.455  -0.450  -0.444
 -0.435  -0.434  -0.424  -0.412  -0.406  -0.403  -0.399  -0.388
 -0.380  -0.374  -0.371  -0.365  -0.355  -0.352  -0.349  -0.347
 -0.339  -0.337  -0.330  -0.327  -0.326  -0.321  -0.315  -0.315
 -0.307  -0.306  -0.303  -0.296  -0.292  -0.280  -0.276  -0.269
 -0.263  -0.257  -0.252  -0.248  -0.241  -0.228  -0.219  -0.191
 -0.175  -0.168  -0.165  -0.158  -0.154  -0.147  -0.139  -0.138
 -0.124

          Ground-State Mulliken Net Atomic Charges

     Atom                 Charge (a.u.)
  ----------------------------------------
      1 O                    -0.218277
      2 C                     0.212021
      3 C                    -0.081578
      4 C                    -0.078345
      5 C                     0.212545
      6 O                    -0.173908
      7 C                    -0.050480
      8 C                    -0.055294
      9 O                    -0.171200
     10 C                     0.220959
     11 C                    -0.076891
     12 C                    -0.081457
     13 C                     0.219927
     14 O                    -0.217434
     15 O                    -0.180073
     16 O                    -0.175845
     17 O                    -0.204969
     18 C                    -0.128625
     19 C                     0.028148
     20 C                    -0.143670
     21 C                    -0.142391
     22 C                     0.025540
     23 O                    -0.181728
     24 H                     0.088875
     25 H                     0.085243
     26 H                     0.095010
     27 H                     0.081529
     28 H                     0.074285
     29 H                     0.080873
     30 H                     0.074114
     31 H                     0.092928
     32 O                    -0.204099
     33 C                    -0.153445
     34 C                     0.024952
     35 C                    -0.144254
     36 C                    -0.143736
     37 C                     0.025294
     38 O                    -0.189042
     39 H                     0.082028
     40 H                     0.085611
     41 H                     0.106671
     42 H                     0.089011
     43 H                     0.076772
     44 H                     0.072893
     45 H                     0.076866
     46 H                     0.072689
     47 H                     0.081917
     48 H                     0.071445
     49 H                     0.092721
     50 H                     0.086698
     51 H                     0.088130
     52 H                     0.092749
     53 H                     0.084678
     54 H                     0.105680
     55 H                     0.090116
     56 H                     0.097822
  ----------------------------------------
  Sum of atomic charges =     0.000000

                    Cartesian Multipole Moments
 -----------------------------------------------------------------
    Charge (ESU x 10^10)
                -0.0000
    Dipole Moment (Debye)
         X       1.5493      Y      -2.2429      Z      -2.8542
       Tot       3.9469
    Quadrupole Moments (Debye-Ang)
        XX    -139.7647     XY      -4.2591     YY    -155.4882
        XZ       8.1458     YZ       1.3244     ZZ    -159.8830

 Total job time:  60.23s(wall), 2869.69s(cpu)
        *  Thank you very much for using Q-Chem.  Have a nice day.  *
