 Q-Chem 5.0, Q-Chem, Inc., Pleasanton, CA (2017)
 Q-Chem 5.0.1 for Intel X86 EM64T Linux

User input:
--------------------------------------------------------------
$molecule
0  1
O -1.6515066908 1.1602823456 2.2766687986
C -1.9150849793 1.3517643924 1.0700896992
C -3.2958419049 1.1028690114 0.3492230191
C -3.3870385047 -0.2414572194 -0.4807812185
C -2.0989995604 -1.1217958308 -0.3857927824
O -2.2599409187 -2.2540644425 -1.2553927889
C -1.0312099289 -3.0824462639 -1.2219108063
C 0.1599026585 -2.4027219472 -2.0024454327
O 1.3362602172 -2.338177279 -1.1006440625
C 1.8815138687 -1.0182804712 -1.0902019316
C 3.1375156238 -1.0027311803 -0.1575610492
C 3.816050697 0.4237427768 -0.0979412533
C 3.3037483527 1.4378799643 -1.1880345259
O 2.7504943013 2.5448670079 -1.006621044
O -1.0301902366 1.9314323326 0.1117372454
O 3.7778799155 0.9754969401 -2.4613994218
O 1.3833262926 -0.0425155699 -1.6984085189
C 3.2801312495 1.8669971574 -3.532021461
C 2.6755953905 -1.1714040632 1.3540994876
C 3.9520100923 -1.3582736401 2.2653960917
C 4.4989188546 0.1174591078 2.343284247
C 3.4885140884 0.8622451813 1.3895158687
O 2.202237273 0.1891888958 1.6962416235
H 3.8379975639 -1.7974885703 -0.4702232196
H 4.9073001868 0.323269606 -0.2413941988
H 1.8667107617 -1.9135245743 1.500221952
H 3.6633268319 -1.7371114511 3.258587106
H 4.6773117767 -2.056477214 1.8175780756
H 4.4271360119 0.5183329436 3.3668950372
H 5.5419122586 0.2052960213 1.9991248993
H 3.3942728602 1.956218862 1.5317348707
O -1.0736759084 -0.9215465417 0.3017913409
C 0.2931597728 2.1859049045 0.7277248659
C -4.461063232 0.8823618176 1.4016470126
C -5.8429445164 1.1086165892 0.6724137199
C -5.9448827579 -0.2023353046 -0.1932301616
C -4.6208691046 -0.9526393503 0.2312388976
O -4.4411021912 -0.5793536147 1.6505451901
H -3.4978875876 1.968118079 -0.3067217472
H -3.5977334162 -0.0530357948 -1.5490455175
H 0.76414145 1.2546772918 1.1214922369
H -4.3219483067 1.4321680186 2.3525312373
H -6.662138809 1.1716825253 1.4064074913
H -5.8450672811 2.0243797438 0.0600275214
H -6.8291424893 -0.8009813565 0.0776558761
H -5.9755635184 0.0025753347 -1.2754181825
H -4.641630843 -2.0534368777 0.1111060952
H 0.211535244 2.9237409954 1.5511193532
H 0.9481220581 2.5890198587 -0.0706121353
H 3.7268082044 1.4972202369 -4.4732820851
H 3.5831569772 2.9204244784 -3.3629804874
H 2.1737854137 1.8240422899 -3.6033275826
H 0.4363404094 -3.0006714431 -2.896270425
H -0.1019985126 -1.3698861366 -2.3213442421
H -1.3141519975 -4.0430314174 -1.6950954244
H -0.7029636316 -3.2682777894 -0.1759926881
$end

$rem
JOBTYPE                   OPT
METHOD                    B3LYP
DFT_D                     d3_op
BASIS                     STO-3G
GEOM_OPT_MAX_CYCLES       100
GEOM_OPT_TOL_GRADIENT     300
GEOM_OPT_TOL_DISPLACEMENT 1200
GEOM_OPT_TOL_ENERGY       100
SYMMETRY                  False
THRESH                    12
SCF_CONVERGENCE           8
MAX_SUB_FILE_NUM          128
MEM_STATIC                400
MEM_TOTAL                 4000
$end
--------------------------------------------------------------

   16   -1510.2964625055      5.49E-09 Convergence criterion met
 Total energy in the final basis set = -1510.29646251
   13   -1510.2960261465      3.69E-09 Convergence criterion met
 Total energy in the final basis set = -1510.29602615
   13   -1510.2955779073      5.01E-09 Convergence criterion met
 Total energy in the final basis set = -1510.29557791
   15   -1510.1229936200      4.13E-09 Convergence criterion met
 Total energy in the final basis set = -1510.12299362
   14   -1510.2927768728      7.90E-09 Convergence criterion met
 Total energy in the final basis set = -1510.29277687
   13   -1510.2951067819      6.80E-09 Convergence criterion met
 Total energy in the final basis set = -1510.29510678
   13   -1510.2942244885      6.01E-09 Convergence criterion met
 Total energy in the final basis set = -1510.29422449
   13   -1510.2954264841      4.12E-09 Convergence criterion met
   12   -1510.3009579593      8.02E-09 Convergence criterion met
 Total energy in the final basis set = -1510.30095796
   11   -1510.3009736030      7.21E-09 Convergence criterion met
 Total energy in the final basis set = -1510.30097360
   11   -1510.3009813628      6.12E-09 Convergence criterion met
 Total energy in the final basis set = -1510.30098136
   11   -1510.3009856629      6.72E-09 Convergence criterion met
 Total energy in the final basis set = -1510.30098566
    9   -1510.3009872363      9.44E-09 Convergence criterion met
 Total energy in the final basis set = -1510.30098724
    9   -1510.3009875214      1.70E-09 Convergence criterion met
 Total energy in the final basis set = -1510.30098752

             Standard Nuclear Orientation (Angstroms)
    I     Atom           X                Y                Z
 ----------------------------------------------------------------
    1      O       1.1301406523     2.3458498335    -0.2660343232
    2      C       1.6181968506     1.5615354299     0.5761427013
    3      C       3.0920307893     1.0055285924     0.5985297555
    4      C       3.2370087066    -0.5528904220     0.3771264868
    5      C       1.9116224670    -1.2660822570    -0.0465340802
    6      O       2.0728458140    -2.6627968337     0.2258742031
    7      C       0.9769936977    -3.4704910914    -0.3594487872
    8      C      -0.4203659977    -3.3106865211     0.3554463530
    9      O      -1.3283796423    -2.5324018330    -0.5171331766
   10      C      -1.7746399617    -1.3447184532     0.1470951462
   11      C      -2.5818316319    -0.4993771131    -0.8864019746
   12      C      -3.7297349560     0.3876566553    -0.2481369663
   13      C      -3.7897259225     0.2966973281     1.3203331467
   14      O      -3.4798133798     1.1786280143     2.1483548424
   15      O       0.9624609497     1.0871379752     1.7487172328
   16      O      -4.3366553971    -0.9841482749     1.6631440534
   17      O      -1.5348119362    -1.0772518868     1.3456867933
   18      C      -4.3006772089    -1.1671357439     3.1310167508
   19      C      -1.6629841200     0.6212877051    -1.5537687142
   20      C      -2.3764817061     1.1125986860    -2.8693804741
   21      C      -3.5649198260     1.9608935852    -2.2745959195
   22      C      -3.2950156618     1.8318741516    -0.7243021541
   23      O      -1.8153764892     1.7803832377    -0.6464609392
   24      H      -2.9782511320    -1.1868498739    -1.6537373735
   25      H      -4.7152034480     0.0968232225    -0.6543328565
   26      H      -0.5937758145     0.3360049847    -1.6315638295
   27      H      -1.6925286418     1.7397504482    -3.4632050734
   28      H      -2.7220716166     0.2733334180    -3.4937871115
   29      H      -3.5056045729     3.0145958304    -2.5898799358
   30      H      -4.5528936513     1.5616986349    -2.5549686935
   31      H      -3.6828287338     2.6549845274    -0.0936929746
   32      O       0.9052816762    -0.7618475426    -0.5903858696
   33      C      -0.3913582348     1.6860698323     1.8740694429
   34      C       3.9539559527     1.5696172293    -0.6070192693
   35      C       5.4791014187     1.4311947786    -0.2270422235
   36      C       5.6760786453    -0.1259131893    -0.3481325798
   37      C       4.2487027868    -0.5785820483    -0.8542729491
   38      O       3.7806100100     0.5571845910    -1.6767706532
   39      H       3.5373955816     1.2850398162     1.5701102964
   40      H       3.6519144684    -1.0696706109     1.2603325133
   41      H      -0.9400347482     1.7023443381     0.8978629726
   42      H       3.6276707313     2.5653920950    -0.9652492071
   43      H       6.1083247869     1.9731366082    -0.9510080298
   44      H       5.6938561243     1.8116666888     0.7841405562
   45      H       6.4479651939    -0.3822343883    -1.0910669755
   46      H       5.9385840150    -0.5982163981     0.6118631692
   47      H       4.2327895826    -1.5199805229    -1.4374991716
   48      H      -0.3140927095     2.7198205635     2.2685326563
   49      H      -0.9381570494     1.0587200646     2.6003244737
   50      H      -4.7893909960    -2.1382223838     3.3321291338
   51      H      -4.8450047608    -0.3585858262     3.6601103816
   52      H      -3.2552334674    -1.1924968812     3.5017614158
   53      H      -0.8739079435    -4.3111672374     0.5161730028
   54      H      -0.3211237026    -2.7882720324     1.3330975220
   55      H       1.3278607447    -4.5176024665    -0.2647445313
   56      H       0.8431262730    -3.2306127121    -1.4376077569
 ----------------------------------------------------------------

    8   -1510.3009876559      7.91E-09 Convergence criterion met
 Total energy in the final basis set = -1510.30098766
 Final energy is   -1510.30098765593
 **  OPTIMIZATION CONVERGED  **

                    Orbital Energies (a.u.)
 --------------------------------------------------------------

 Alpha MOs
 -- Occupied --
-18.938 -18.933 -18.924 -18.902 -18.898 -18.883 -18.883 -18.878
-18.868 -18.847 -10.106 -10.102 -10.093 -10.078 -10.076 -10.071
-10.059 -10.058 -10.057 -10.054 -10.050 -10.036 -10.035 -10.035
-10.024 -10.018 -10.018 -10.016 -10.015 -10.009  -1.020  -1.011
 -1.002  -0.983  -0.973  -0.966  -0.944  -0.937  -0.929  -0.909
 -0.763  -0.758  -0.726  -0.719  -0.711  -0.701  -0.694  -0.657
 -0.631  -0.618  -0.592  -0.576  -0.544  -0.539  -0.535  -0.531
 -0.512  -0.504  -0.481  -0.464  -0.459  -0.450  -0.448  -0.445
 -0.436  -0.429  -0.425  -0.412  -0.406  -0.400  -0.397  -0.390
 -0.378  -0.375  -0.374  -0.361  -0.354  -0.353  -0.349  -0.345
 -0.341  -0.334  -0.329  -0.328  -0.325  -0.321  -0.317  -0.307
 -0.306  -0.302  -0.297  -0.295  -0.295  -0.279  -0.271  -0.269
 -0.265  -0.257  -0.249  -0.246  -0.239  -0.230  -0.216  -0.189
 -0.172  -0.168  -0.160  -0.157  -0.154  -0.146  -0.141  -0.139
 -0.128

          Ground-State Mulliken Net Atomic Charges

     Atom                 Charge (a.u.)
  ----------------------------------------
      1 O                    -0.216431
      2 C                     0.210041
      3 C                    -0.081319
      4 C                    -0.077383
      5 C                     0.218663
      6 O                    -0.172607
      7 C                    -0.050410
      8 C                    -0.056720
      9 O                    -0.171844
     10 C                     0.222013
     11 C                    -0.079041
     12 C                    -0.080694
     13 C                     0.214571
     14 O                    -0.212197
     15 O                    -0.180846
     16 O                    -0.175579
     17 O                    -0.213546
     18 C                    -0.128952
     19 C                     0.023904
     20 C                    -0.142583
     21 C                    -0.143504
     22 C                     0.026880
     23 O                    -0.178398
     24 H                     0.087461
     25 H                     0.084911
     26 H                     0.110555
     27 H                     0.082454
     28 H                     0.073652
     29 H                     0.079890
     30 H                     0.072905
     31 H                     0.090508
     32 O                    -0.213235
     33 C                    -0.151155
     34 C                     0.024047
     35 C                    -0.143628
     36 C                    -0.144055
     37 C                     0.024948
     38 O                    -0.190662
     39 H                     0.082313
     40 H                     0.087392
     41 H                     0.118356
     42 H                     0.090633
     43 H                     0.077107
     44 H                     0.073415
     45 H                     0.077115
     46 H                     0.073491
     47 H                     0.080375
     48 H                     0.068790
     49 H                     0.085885
     50 H                     0.086994
     51 H                     0.088232
     52 H                     0.092272
     53 H                     0.085195
     54 H                     0.105683
     55 H                     0.090326
     56 H                     0.093811
  ----------------------------------------
  Sum of atomic charges =     0.000000

                    Cartesian Multipole Moments
 -----------------------------------------------------------------
    Charge (ESU x 10^10)
                -0.0000
    Dipole Moment (Debye)
         X      -0.1218      Y      -3.1089      Z      -0.3037
       Tot       3.1261
    Quadrupole Moments (Debye-Ang)
        XX    -141.3787     XY      -0.4491     YY    -154.6220
        XZ       5.9432     YZ      -1.2914     ZZ    -159.1453

 Total job time:  106.19s(wall), 5065.43s(cpu)
        *  Thank you very much for using Q-Chem.  Have a nice day.  *
