 Q-Chem 5.0, Q-Chem, Inc., Pleasanton, CA (2017)
 Q-Chem 5.0.1 for Intel X86 EM64T Linux

User input:
--------------------------------------------------------------
$molecule
0  1
O -3.94934 -3.66094 2.70899
C -3.26408 -4.56952 2.26188
C -3.36658 -6.02376 2.66595
C -2.32261 -6.55096 3.66397
C -1.40165 -5.5228 4.28269
O -0.4721 -6.14461 5.06673
C 0.46744 -5.23759 5.65312
C 1.44593 -4.73776 4.59537
O 1.47604 -3.3018 4.5961
C 1.32915 -2.71486 3.3824
C 1.40288 -1.20777 3.44487
C 1.25534 -0.49584 2.09222
C 0.70961 -1.33935 0.9576
O -0.31434 -1.10771 0.33116
O -2.42259 -4.30603 1.23384
O 1.62909 -2.15408 0.3651
O 1.15041 -3.38844 2.38188
C 1.40939 -2.89814 -0.77575
C 0.25538 -0.56398 4.24534
C 0.70171 0.80219 4.76028
C 0.75358 1.58747 3.46537
C 0.18747 0.54697 2.48998
O -0.6992 -0.21383 3.27457
H 2.37797 -0.96143 3.92359
H 2.19824 -0.02281 1.73892
H -0.1096 -1.19429 5.08551
H -0.13193 1.19815 5.38389
H 1.6391 0.81021 5.35704
H 0.07122 2.46128 3.55901
H 1.76604 1.92363 3.15303
H -0.25742 1.05819 1.60803
O -1.4326 -4.31279 4.09186
C -2.44882 -3.12112 0.53572
C -4.64854 -6.29225 3.49485
C -5.0277 -7.77111 3.41587
C -3.94552 -8.38529 4.27634
C -3.23147 -7.12096 4.76339
O -4.24967 -6.15588 4.83651
H -3.45386 -6.62218 1.73114
H -1.6713 -7.31398 3.18171
H -2.2617 -2.27311 1.22665
H -5.51562 -5.67147 3.17852
H -6.00303 -7.88624 3.94134
H -5.1151 -8.18837 2.38972
H -4.42996 -8.91404 5.12721
H -3.2498 -9.07215 3.74727
H -2.68631 -7.32734 5.71062
H -3.44163 -2.9862 0.05537
H -1.6837 -3.15356 -0.26268
H 2.33667 -3.45016 -1.03207
H 1.14317 -2.23297 -1.62466
H 0.59908 -3.63549 -0.6012
H 2.46181 -5.07058 4.90112
H 1.28167 -5.25454 3.62401
H 1.04569 -5.8152 6.40658
H -0.03215 -4.41736 6.21842
$end

$opt
CONSTRAINT
tors           1           2           3           4    -100.607
tors           3           4           5           6    -175.610
tors           4           5           6           7    +177.998
tors           5           6           7           8     -73.421
tors           6           7           8           9    +126.907
tors           7           8           9          10    -130.081
tors           8           9          10          11    -178.610
tors           9          10          11          12    +179.443
tors          11          12          13          14    +120.021
ENDCONSTRAINT
$end

$rem
JOBTYPE                   OPT
METHOD                    B3LYP
DFT_D                     d3_op
BASIS                     STO-3G
GEOM_OPT_MAX_CYCLES       100
GEOM_OPT_TOL_GRADIENT     300
GEOM_OPT_TOL_DISPLACEMENT 1200
GEOM_OPT_TOL_ENERGY       100
SYMMETRY                  False
THRESH                    12
SCF_CONVERGENCE           8
MAX_SUB_FILE_NUM          128
MEM_STATIC                400
MEM_TOTAL                 4000
$end
--------------------------------------------------------------

   15   -1510.1484201038      6.16E-09 Convergence criterion met
 Total energy in the final basis set = -1510.14842010
   14   -1510.2183491229      4.20E-09 Convergence criterion met
 Total energy in the final basis set = -1510.21834912
   15   -1510.2432431437      4.02E-09 Convergence criterion met
 Total energy in the final basis set = -1510.24324314
   14   -1510.2727281921      2.65E-09 Convergence criterion met
 Total energy in the final basis set = -1510.27272819
   13   -1510.2812919396      8.51E-09 Convergence criterion met
 Total energy in the final basis set = -1510.28129194
   13   -1510.2864435404      5.67E-09 Convergence criterion met
 Total energy in the final basis set = -1510.28644354
   13   -1510.2900200494      3.64E-09 Convergence criterion met
 Total energy in the final basis set = -1510.29002005
   13   -1510.2921200287      5.28E-09 Convergence criterion met
   11   -1510.2962613953      4.34E-09 Convergence criterion met
 Total energy in the final basis set = -1510.29626140
   11   -1510.2963571252      6.89E-09 Convergence criterion met
 Total energy in the final basis set = -1510.29635713
   11   -1510.2964022147      5.21E-09 Convergence criterion met
 Total energy in the final basis set = -1510.29640221
   10   -1510.2964339136      6.50E-09 Convergence criterion met
 Total energy in the final basis set = -1510.29643391
   10   -1510.2964445791      8.33E-09 Convergence criterion met
 Total energy in the final basis set = -1510.29644458
    9   -1510.2964523566      7.39E-09 Convergence criterion met
 Total energy in the final basis set = -1510.29645236

             Standard Nuclear Orientation (Angstroms)
    I     Atom           X                Y                Z
 ----------------------------------------------------------------
    1      O      -1.6515066908     1.1602823456     2.2766687986
    2      C      -1.9150849793     1.3517643924     1.0700896992
    3      C      -3.2958419049     1.1028690114     0.3492230191
    4      C      -3.3870385047    -0.2414572194    -0.4807812185
    5      C      -2.0989995604    -1.1217958308    -0.3857927824
    6      O      -2.2599409187    -2.2540644425    -1.2553927889
    7      C      -1.0312099289    -3.0824462639    -1.2219108063
    8      C       0.1599026585    -2.4027219472    -2.0024454327
    9      O       1.3362602172    -2.3381772790    -1.1006440625
   10      C       1.8815138687    -1.0182804712    -1.0902019316
   11      C       3.1375156238    -1.0027311803    -0.1575610492
   12      C       3.8160506970     0.4237427768    -0.0979412533
   13      C       3.3037483527     1.4378799643    -1.1880345259
   14      O       2.7504943013     2.5448670079    -1.0066210440
   15      O      -1.0301902366     1.9314323326     0.1117372454
   16      O       3.7778799155     0.9754969401    -2.4613994218
   17      O       1.3833262926    -0.0425155699    -1.6984085189
   18      C       3.2801312495     1.8669971574    -3.5320214610
   19      C       2.6755953905    -1.1714040632     1.3540994876
   20      C       3.9520100923    -1.3582736401     2.2653960917
   21      C       4.4989188546     0.1174591078     2.3432842470
   22      C       3.4885140884     0.8622451813     1.3895158687
   23      O       2.2022372730     0.1891888958     1.6962416235
   24      H       3.8379975639    -1.7974885703    -0.4702232196
   25      H       4.9073001868     0.3232696060    -0.2413941988
   26      H       1.8667107617    -1.9135245743     1.5002219520
   27      H       3.6633268319    -1.7371114511     3.2585871060
   28      H       4.6773117767    -2.0564772140     1.8175780756
   29      H       4.4271360119     0.5183329436     3.3668950372
   30      H       5.5419122586     0.2052960213     1.9991248993
   31      H       3.3942728602     1.9562188620     1.5317348707
   32      O      -1.0736759084    -0.9215465417     0.3017913409
   33      C       0.2931597728     2.1859049045     0.7277248659
   34      C      -4.4610632320     0.8823618176     1.4016470126
   35      C      -5.8429445164     1.1086165892     0.6724137199
   36      C      -5.9448827579    -0.2023353046    -0.1932301616
   37      C      -4.6208691046    -0.9526393503     0.2312388976
   38      O      -4.4411021912    -0.5793536147     1.6505451901
   39      H      -3.4978875876     1.9681180790    -0.3067217472
   40      H      -3.5977334162    -0.0530357948    -1.5490455175
   41      H       0.7641414500     1.2546772918     1.1214922369
   42      H      -4.3219483067     1.4321680186     2.3525312373
   43      H      -6.6621388090     1.1716825253     1.4064074913
   44      H      -5.8450672811     2.0243797438     0.0600275214
   45      H      -6.8291424893    -0.8009813565     0.0776558761
   46      H      -5.9755635184     0.0025753347    -1.2754181825
   47      H      -4.6416308430    -2.0534368777     0.1111060952
   48      H       0.2115352440     2.9237409954     1.5511193532
   49      H       0.9481220581     2.5890198587    -0.0706121353
   50      H       3.7268082044     1.4972202369    -4.4732820851
   51      H       3.5831569772     2.9204244784    -3.3629804874
   52      H       2.1737854137     1.8240422899    -3.6033275826
   53      H       0.4363404094    -3.0006714431    -2.8962704250
   54      H      -0.1019985126    -1.3698861366    -2.3213442421
   55      H      -1.3141519975    -4.0430314174    -1.6950954244
   56      H      -0.7029636316    -3.2682777894    -0.1759926881
 ----------------------------------------------------------------

    9   -1510.2964529283      4.38E-09 Convergence criterion met
 Total energy in the final basis set = -1510.29645293
 Final energy is   -1510.29645292827
 **  OPTIMIZATION CONVERGED  **

                    Orbital Energies (a.u.)
 --------------------------------------------------------------

 Alpha MOs
 -- Occupied --
-18.943 -18.936 -18.924 -18.899 -18.898 -18.891 -18.883 -18.880
-18.868 -18.840 -10.110 -10.101 -10.097 -10.077 -10.074 -10.071
-10.066 -10.062 -10.057 -10.055 -10.048 -10.045 -10.038 -10.034
-10.024 -10.022 -10.021 -10.015 -10.013 -10.007  -1.024  -1.015
 -1.003  -0.978  -0.977  -0.963  -0.947  -0.939  -0.929  -0.903
 -0.768  -0.755  -0.730  -0.720  -0.712  -0.703  -0.693  -0.658
 -0.629  -0.619  -0.594  -0.577  -0.549  -0.541  -0.537  -0.528
 -0.515  -0.505  -0.483  -0.468  -0.460  -0.456  -0.450  -0.443
 -0.434  -0.433  -0.424  -0.412  -0.406  -0.403  -0.399  -0.387
 -0.381  -0.375  -0.371  -0.365  -0.356  -0.352  -0.349  -0.346
 -0.340  -0.336  -0.329  -0.327  -0.324  -0.320  -0.315  -0.314
 -0.307  -0.306  -0.303  -0.297  -0.291  -0.280  -0.276  -0.269
 -0.262  -0.257  -0.253  -0.248  -0.240  -0.227  -0.217  -0.191
 -0.176  -0.168  -0.166  -0.156  -0.154  -0.147  -0.138  -0.137
 -0.122

          Ground-State Mulliken Net Atomic Charges

     Atom                 Charge (a.u.)
  ----------------------------------------
      1 O                    -0.219941
      2 C                     0.212466
      3 C                    -0.081914
      4 C                    -0.077963
      5 C                     0.212762
      6 O                    -0.173433
      7 C                    -0.050635
      8 C                    -0.056034
      9 O                    -0.170636
     10 C                     0.222201
     11 C                    -0.076587
     12 C                    -0.081264
     13 C                     0.221138
     14 O                    -0.217916
     15 O                    -0.179218
     16 O                    -0.175947
     17 O                    -0.203991
     18 C                    -0.128556
     19 C                     0.028279
     20 C                    -0.143735
     21 C                    -0.142437
     22 C                     0.025269
     23 O                    -0.182355
     24 H                     0.088893
     25 H                     0.085152
     26 H                     0.093246
     27 H                     0.081144
     28 H                     0.074142
     29 H                     0.080682
     30 H                     0.074026
     31 H                     0.092791
     32 O                    -0.203285
     33 C                    -0.154104
     34 C                     0.024887
     35 C                    -0.144143
     36 C                    -0.143833
     37 C                     0.024931
     38 O                    -0.189575
     39 H                     0.082094
     40 H                     0.085612
     41 H                     0.106084
     42 H                     0.088322
     43 H                     0.076675
     44 H                     0.072926
     45 H                     0.076781
     46 H                     0.072539
     47 H                     0.082991
     48 H                     0.069968
     49 H                     0.094737
     50 H                     0.086592
     51 H                     0.088380
     52 H                     0.092518
     53 H                     0.084700
     54 H                     0.106051
     55 H                     0.090209
     56 H                     0.098321
  ----------------------------------------
  Sum of atomic charges =     0.000000

                    Cartesian Multipole Moments
 -----------------------------------------------------------------
    Charge (ESU x 10^10)
                -0.0000
    Dipole Moment (Debye)
         X       1.6702      Y      -2.1837      Z      -2.8874
       Tot       3.9870
    Quadrupole Moments (Debye-Ang)
        XX    -139.8732     XY      -4.0927     YY    -155.3404
        XZ       8.1780     YZ       1.6974     ZZ    -159.9788

 Total job time:  61.55s(wall), 2930.69s(cpu)
        *  Thank you very much for using Q-Chem.  Have a nice day.  *
