 Q-Chem 5.0, Q-Chem, Inc., Pleasanton, CA (2017)
 Q-Chem 5.0.1 for Intel X86 EM64T Linux

User input:
--------------------------------------------------------------
$molecule
0  1
O -3.94934 -3.66094 2.70899
C -3.26408 -4.56952 2.26188
C -3.36658 -6.02376 2.66595
C -2.40903 -6.51738 3.7629
C -1.57839 -5.46159 4.45818
O -0.58108 -6.05545 5.17799
C 0.26867 -5.11575 5.84442
C 1.17846 -4.42233 4.83567
O 1.04074 -2.99734 4.95106
C 0.82763 -2.33591 3.78648
C 0.71186 -0.84155 3.97125
C 0.48156 -0.04537 2.67844
C 0.0501 -0.85468 1.47198
O -1.00297 -0.71765 0.86631
O -2.5829 -4.34993 1.10846
O 1.06449 -1.49372 0.82246
O 0.74503 -2.9417 2.73147
C 0.93013 -2.18549 -0.36325
C -0.5101 -0.41319 4.80511
C -0.24022 0.95135 5.43451
C -0.28281 1.84002 4.20792
C -0.71028 0.82002 3.14426
O -1.4975 -0.10676 3.85271
H 1.64643 -0.51592 4.48232
H 1.35767 0.57055 2.37732
H -0.79618 -1.15046 5.58677
H -1.11892 1.18819 6.07671
H 0.68683 1.0273 6.04254
H -1.06997 2.61106 4.36216
H 0.68045 2.32452 3.9377
H -1.21242 1.34187 2.30004
O -1.7101 -4.24876 4.3444
C -2.8237 -3.2736 0.28214
C -4.71583 -6.3329 3.35728
C -5.03266 -7.82502 3.25382
C -4.02608 -8.39615 4.22984
C -3.40388 -7.10599 4.77203
O -4.45718 -6.17525 4.73168
H -3.31872 -6.6344 1.73538
H -1.69739 -7.26168 3.3389
H -2.73074 -2.32986 0.84787
H -5.56379 -5.74071 2.94795
H -6.05349 -7.97325 3.67382
H -4.99493 -8.24914 2.22745
H -4.57951 -8.92898 5.03486
H -3.26092 -9.06858 3.78479
H -2.94511 -7.28434 5.76969
H -3.85521 -3.33794 -0.12513
H -2.1098 -3.28714 -0.56515
H 1.91956 -2.58784 -0.66223
H 0.56078 -1.51069 -1.16461
H 0.23073 -3.03592 -0.22883
H 2.22658 -4.65102 5.12818
H 1.08105 -4.87898 3.82578
H 0.91316 -5.70593 6.53157
H -0.29973 -4.40939 6.49222
$end

$opt
CONSTRAINT
tors           1           2           3           4     -94.925
tors           3           4           5           6    -166.589
tors           4           5           6           7    +178.747
tors           5           6           7           8     -73.421
tors           6           7           8           9    +125.645
tors           7           8           9          10    -130.341
tors           8           9          10          11    -179.152
tors           9          10          11          12    +179.510
tors          11          12          13          14    +118.650
ENDCONSTRAINT
$end

$rem
JOBTYPE                   OPT
METHOD                    B3LYP
DFT_D                     d3_op
BASIS                     STO-3G
GEOM_OPT_MAX_CYCLES       100
GEOM_OPT_TOL_GRADIENT     300
GEOM_OPT_TOL_DISPLACEMENT 1200
GEOM_OPT_TOL_ENERGY       100
SYMMETRY                  False
THRESH                    12
SCF_CONVERGENCE           8
MAX_SUB_FILE_NUM          128
MEM_STATIC                400
MEM_TOTAL                 4000
$end
--------------------------------------------------------------

   15   -1510.1440639540      6.32E-09 Convergence criterion met
 Total energy in the final basis set = -1510.14406395
   14   -1510.2150056557      6.75E-09 Convergence criterion met
 Total energy in the final basis set = -1510.21500566
   14   -1510.2509995620      7.87E-09 Convergence criterion met
 Total energy in the final basis set = -1510.25099956
   14   -1510.2648541991      6.53E-09 Convergence criterion met
 Total energy in the final basis set = -1510.26485420
   13   -1510.2736527855      6.85E-09 Convergence criterion met
 Total energy in the final basis set = -1510.27365279
   13   -1510.2805828859      5.76E-09 Convergence criterion met
 Total energy in the final basis set = -1510.28058289
   13   -1510.2846165226      8.44E-09 Convergence criterion met
 Total energy in the final basis set = -1510.28461652
   13   -1510.2880979322      5.95E-09 Convergence criterion met
   12   -1510.2959002300      2.63E-09 Convergence criterion met
 Total energy in the final basis set = -1510.29590023
   11   -1510.2960219296      8.57E-09 Convergence criterion met
 Total energy in the final basis set = -1510.29602193
   11   -1510.2961074755      5.99E-09 Convergence criterion met
 Total energy in the final basis set = -1510.29610748
   10   -1510.2961554813      7.85E-09 Convergence criterion met
 Total energy in the final basis set = -1510.29615548
   10   -1510.2961711308      8.98E-09 Convergence criterion met
 Total energy in the final basis set = -1510.29617113
    9   -1510.2961749621      9.74E-09 Convergence criterion met
 Total energy in the final basis set = -1510.29617496

             Standard Nuclear Orientation (Angstroms)
    I     Atom           X                Y                Z
 ----------------------------------------------------------------
    1      O      -1.6738824082     1.0569845640     2.3011057253
    2      C      -1.9448293462     1.3003153641     1.1054295757
    3      C      -3.3246678564     1.0585078827     0.3807725341
    4      C      -3.4320637553    -0.3189618025    -0.3923021483
    5      C      -2.1069838752    -1.1457166072    -0.4128227108
    6      O      -2.2519120898    -2.1875727555    -1.3917348813
    7      C      -1.0052348892    -2.9830076187    -1.4696386223
    8      C       0.1680685519    -2.2148498226    -2.1944431127
    9      O       1.3511555780    -2.1970040051    -1.3007025893
   10      C       1.8735052261    -0.8716622488    -1.1881962313
   11      C       3.1279955098    -0.9168758153    -0.2547772938
   12      C       3.7975248387     0.5032305344    -0.0690372761
   13      C       3.2972731229     1.5949864684    -1.0867931163
   14      O       2.7113680810     2.6721419376    -0.8412584630
   15      O      -1.0621217728     1.9190501566     0.1709565162
   16      O       3.7913032770     1.2264213417    -2.3822517401
   17      O       1.3637931627     0.1392187957    -1.7241118109
   18      C       3.2865082348     2.1765150289    -3.3979845818
   19      C       2.6524303376    -1.2120545195     1.2346746747
   20      C       3.9196115941    -1.4663518774     2.1417229783
   21      C       4.4566119382     0.0009133052     2.3455971219
   22      C       3.4508366901     0.8164424583     1.4451441670
   23      O       2.1666102642     0.1131675760     1.6819667798
   24      H       3.8358769112    -1.6791102207    -0.6259959698
   25      H       4.8909448816     0.4171074437    -0.2048179778
   26      H       1.8455884322    -1.9671124160     1.3095110753
   27      H       3.6223970252    -1.9259874492     3.0975379636
   28      H       4.6538228299    -2.1225700576     1.6473160103
   29      H       4.3716723598     0.3167695904     3.3975529046
   30      H       5.5024454236     0.1212684116     2.0207368555
   31      H       3.3476584399     1.8940959765     1.6769645359
   32      O      -1.0702307212    -0.9741971826     0.2648372858
   33      C       0.2554933491     2.1586310461     0.8057725969
   34      C      -4.4770063571     0.8775772420     1.4549077388
   35      C      -5.8773280479     0.9925490536     0.7333759922
   36      C      -5.9642768697    -0.4017417537     0.0082494197
   37      C      -4.5865262015    -1.0467265331     0.4313341631
   38      O      -4.3848819522    -0.5591381727     1.8116230190
   39      H      -3.5160008364     1.9042946467    -0.3028391972
   40      H      -3.7458247140    -0.1678512092    -1.4407352752
   41      H       0.7335642999     1.2136716024     1.1561620555
   42      H      -4.3545528749     1.5026633162     2.3602902710
   43      H      -6.6848349862     1.1134000689     1.4728577053
   44      H      -5.9134895970     1.8399672465     0.0301416974
   45      H      -6.8026511687    -1.0051861950     0.3912597159
   46      H      -6.0640445869    -0.3110648259    -1.0852843941
   47      H      -4.5497819693    -2.1529755408     0.3935118842
   48      H       0.1602111372     2.8532707062     1.6643035643
   49      H       0.9109684160     2.6081519851     0.0333462941
   50      H       3.7281248051     1.8603169272    -4.3609333432
   51      H       3.5903238839     3.2191753060    -3.1727782318
   52      H       2.1798315264     2.1361657643    -3.4649683491
   53      H       0.4494387283    -2.7338737144    -3.1348284321
   54      H      -0.1180605774    -1.1662660256    -2.4305578449
   55      H      -1.2794680374    -3.8945564125    -2.0362116520
   56      H      -0.6546443384    -3.2745306011    -0.4551594501
 ----------------------------------------------------------------

    9   -1510.2961764392      2.51E-09 Convergence criterion met
 Total energy in the final basis set = -1510.29617644
 Final energy is   -1510.29617643924
 **  OPTIMIZATION CONVERGED  **

                    Orbital Energies (a.u.)
 --------------------------------------------------------------

 Alpha MOs
 -- Occupied --
-18.942 -18.935 -18.925 -18.899 -18.899 -18.890 -18.882 -18.881
-18.870 -18.840 -10.109 -10.100 -10.098 -10.077 -10.073 -10.071
-10.065 -10.062 -10.058 -10.056 -10.049 -10.044 -10.038 -10.033
-10.023 -10.022 -10.022 -10.015 -10.013 -10.006  -1.023  -1.014
 -1.004  -0.978  -0.977  -0.963  -0.946  -0.938  -0.930  -0.903
 -0.768  -0.755  -0.729  -0.720  -0.712  -0.703  -0.693  -0.658
 -0.629  -0.618  -0.594  -0.576  -0.549  -0.541  -0.537  -0.528
 -0.515  -0.505  -0.483  -0.467  -0.459  -0.456  -0.448  -0.443
 -0.434  -0.434  -0.425  -0.412  -0.407  -0.402  -0.398  -0.388
 -0.380  -0.374  -0.371  -0.365  -0.355  -0.352  -0.350  -0.347
 -0.339  -0.336  -0.329  -0.327  -0.324  -0.320  -0.315  -0.314
 -0.307  -0.306  -0.303  -0.296  -0.291  -0.280  -0.276  -0.269
 -0.262  -0.257  -0.252  -0.248  -0.240  -0.227  -0.218  -0.191
 -0.175  -0.169  -0.166  -0.156  -0.153  -0.148  -0.138  -0.137
 -0.122

          Ground-State Mulliken Net Atomic Charges

     Atom                 Charge (a.u.)
  ----------------------------------------
      1 O                    -0.218279
      2 C                     0.211431
      3 C                    -0.081373
      4 C                    -0.078947
      5 C                     0.211504
      6 O                    -0.173789
      7 C                    -0.050630
      8 C                    -0.055985
      9 O                    -0.171288
     10 C                     0.221929
     11 C                    -0.076554
     12 C                    -0.081219
     13 C                     0.221264
     14 O                    -0.216595
     15 O                    -0.178665
     16 O                    -0.175483
     17 O                    -0.204529
     18 C                    -0.128521
     19 C                     0.028368
     20 C                    -0.143874
     21 C                    -0.142379
     22 C                     0.025373
     23 O                    -0.182143
     24 H                     0.089001
     25 H                     0.085244
     26 H                     0.093581
     27 H                     0.081150
     28 H                     0.074130
     29 H                     0.080744
     30 H                     0.073958
     31 H                     0.092578
     32 O                    -0.203990
     33 C                    -0.154787
     34 C                     0.025674
     35 C                    -0.144854
     36 C                    -0.143215
     37 C                     0.025566
     38 O                    -0.187427
     39 H                     0.082425
     40 H                     0.085132
     41 H                     0.105749
     42 H                     0.087388
     43 H                     0.076757
     44 H                     0.072873
     45 H                     0.076852
     46 H                     0.072614
     47 H                     0.082127
     48 H                     0.070082
     49 H                     0.095603
     50 H                     0.086870
     51 H                     0.088164
     52 H                     0.093363
     53 H                     0.084431
     54 H                     0.105882
     55 H                     0.089788
     56 H                     0.096931
  ----------------------------------------
  Sum of atomic charges =     0.000000

                    Cartesian Multipole Moments
 -----------------------------------------------------------------
    Charge (ESU x 10^10)
                -0.0000
    Dipole Moment (Debye)
         X       1.6364      Y      -2.0851      Z      -3.0444
       Tot       4.0366
    Quadrupole Moments (Debye-Ang)
        XX    -139.1107     XY      -3.5028     YY    -155.3720
        XZ       7.6690     YZ       1.7411     ZZ    -160.2457

 Total job time:  64.79s(wall), 3083.76s(cpu)
        *  Thank you very much for using Q-Chem.  Have a nice day.  *
