 Q-Chem 5.0, Q-Chem, Inc., Pleasanton, CA (2017)
 Q-Chem 5.0.1 for Intel X86 EM64T Linux

User input:
--------------------------------------------------------------
$molecule
0  1
O -1.6738824082 1.056984564 2.3011057253
C -1.9448293462 1.3003153641 1.1054295757
C -3.3246678564 1.0585078827 0.3807725341
C -3.4320637553 -0.3189618025 -0.3923021483
C -2.1069838752 -1.1457166072 -0.4128227108
O -2.2519120898 -2.1875727555 -1.3917348813
C -1.0052348892 -2.9830076187 -1.4696386223
C 0.1680685519 -2.2148498226 -2.1944431127
O 1.351155578 -2.1970040051 -1.3007025893
C 1.8735052261 -0.8716622488 -1.1881962313
C 3.1279955098 -0.9168758153 -0.2547772938
C 3.7975248387 0.5032305344 -0.0690372761
C 3.2972731229 1.5949864684 -1.0867931163
O 2.711368081 2.6721419376 -0.841258463
O -1.0621217728 1.9190501566 0.1709565162
O 3.791303277 1.2264213417 -2.3822517401
O 1.3637931627 0.1392187957 -1.7241118109
C 3.2865082348 2.1765150289 -3.3979845818
C 2.6524303376 -1.2120545195 1.2346746747
C 3.9196115941 -1.4663518774 2.1417229783
C 4.4566119382 0.0009133052 2.3455971219
C 3.4508366901 0.8164424583 1.445144167
O 2.1666102642 0.113167576 1.6819667798
H 3.8358769112 -1.6791102207 -0.6259959698
H 4.8909448816 0.4171074437 -0.2048179778
H 1.8455884322 -1.967112416 1.3095110753
H 3.6223970252 -1.9259874492 3.0975379636
H 4.6538228299 -2.1225700576 1.6473160103
H 4.3716723598 0.3167695904 3.3975529046
H 5.5024454236 0.1212684116 2.0207368555
H 3.3476584399 1.8940959765 1.6769645359
O -1.0702307212 -0.9741971826 0.2648372858
C 0.2554933491 2.1586310461 0.8057725969
C -4.4770063571 0.877577242 1.4549077388
C -5.8773280479 0.9925490536 0.7333759922
C -5.9642768697 -0.4017417537 0.0082494197
C -4.5865262015 -1.0467265331 0.4313341631
O -4.3848819522 -0.5591381727 1.811623019
H -3.5160008364 1.9042946467 -0.3028391972
H -3.745824714 -0.1678512092 -1.4407352752
H 0.7335642999 1.2136716024 1.1561620555
H -4.3545528749 1.5026633162 2.360290271
H -6.6848349862 1.1134000689 1.4728577053
H -5.913489597 1.8399672465 0.0301416974
H -6.8026511687 -1.005186195 0.3912597159
H -6.0640445869 -0.3110648259 -1.0852843941
H -4.5497819693 -2.1529755408 0.3935118842
H 0.1602111372 2.8532707062 1.6643035643
H 0.910968416 2.6081519851 0.0333462941
H 3.7281248051 1.8603169272 -4.3609333432
H 3.5903238839 3.219175306 -3.1727782318
H 2.1798315264 2.1361657643 -3.4649683491
H 0.4494387283 -2.7338737144 -3.1348284321
H -0.1180605774 -1.1662660256 -2.4305578449
H -1.2794680374 -3.8945564125 -2.036211652
H -0.6546443384 -3.2745306011 -0.4551594501
$end

$rem
JOBTYPE                   OPT
METHOD                    B3LYP
DFT_D                     d3_op
BASIS                     STO-3G
GEOM_OPT_MAX_CYCLES       100
GEOM_OPT_TOL_GRADIENT     300
GEOM_OPT_TOL_DISPLACEMENT 1200
GEOM_OPT_TOL_ENERGY       100
SYMMETRY                  False
THRESH                    12
SCF_CONVERGENCE           8
MAX_SUB_FILE_NUM          128
MEM_STATIC                400
MEM_TOTAL                 4000
$end
--------------------------------------------------------------

   16   -1510.2962094846      5.88E-09 Convergence criterion met
 Total energy in the final basis set = -1510.29620948
   14   -1510.2911976367      2.79E-09 Convergence criterion met
 Total energy in the final basis set = -1510.29119764
   14   -1510.2906803037      1.83E-09 Convergence criterion met
 Total energy in the final basis set = -1510.29068030
   15   -1510.2472857874      6.54E-09 Convergence criterion met
 Total energy in the final basis set = -1510.24728579
   14   -1510.2936744305      5.60E-09 Convergence criterion met
 Total energy in the final basis set = -1510.29367443
   14   -1510.2934311236      2.20E-09 Convergence criterion met
 Total energy in the final basis set = -1510.29343112
   14   -1510.2930197237      3.06E-09 Convergence criterion met
 Total energy in the final basis set = -1510.29301972
   13   -1510.2956579024      8.77E-09 Convergence criterion met
   11   -1510.3010108011      9.71E-09 Convergence criterion met
 Total energy in the final basis set = -1510.30101080
   11   -1510.3010493495      8.48E-09 Convergence criterion met
 Total energy in the final basis set = -1510.30104935
   11   -1510.3010559329      5.02E-09 Convergence criterion met
 Total energy in the final basis set = -1510.30105593
   10   -1510.3010719551      8.68E-09 Convergence criterion met
 Total energy in the final basis set = -1510.30107196
   11   -1510.3010739319      4.48E-09 Convergence criterion met
 Total energy in the final basis set = -1510.30107393
   10   -1510.3010760380      8.81E-09 Convergence criterion met
 Total energy in the final basis set = -1510.30107604

             Standard Nuclear Orientation (Angstroms)
    I     Atom           X                Y                Z
 ----------------------------------------------------------------
    1      O       1.1508144189     2.3109102558    -0.3366984530
    2      C       1.6332584726     1.5469712846     0.5272358680
    3      C       3.1027382758     0.9804268391     0.5627858549
    4      C       3.2376291385    -0.5834674313     0.3747071490
    5      C       1.9047624731    -1.3002881821    -0.0168495319
    6      O       2.0489991198    -2.6851461278     0.3181356566
    7      C       0.9455077951    -3.5058390618    -0.2342774269
    8      C      -0.4519808973    -3.3023401594     0.4689384658
    9      O      -1.3466798503    -2.5422707550    -0.4329454920
   10      C      -1.7884089787    -1.3324026284     0.1934294181
   11      C      -2.5777073122    -0.5103988431    -0.8720435036
   12      C      -3.7183850162     0.4129468330    -0.2729505673
   13      C      -3.7876789335     0.3798985202     1.2974535113
   14      O      -3.4666821551     1.2853723906     2.0952550473
   15      O       0.9739130663     1.1116048776     1.7127433155
   16      O      -4.3574817915    -0.8787629553     1.6826465909
   17      O      -1.5549109835    -1.0330735238     1.3856337304
   18      C      -4.3313978907    -1.0103382366     3.1562189205
   19      C      -1.6385247900     0.5743139062    -1.5699358885
   20      C      -2.3330603176     1.0261009749    -2.9090316857
   21      C      -3.5193334726     1.9052194077    -2.3565568183
   22      C      -3.2636326848     1.8330479172    -0.8001584907
   23      O      -1.7853076407     1.7676574425    -0.7068429261
   24      H      -2.9779574767    -1.2176514539    -1.6192503205
   25      H      -4.7051971740     0.1187445859    -0.6734853134
   26      H      -0.5723592403     0.2723731515    -1.6259559798
   27      H      -1.6369329934     1.6263678296    -3.5163197221
   28      H      -2.6800155442     0.1693462638    -3.5084751926
   29      H      -3.4495185125     2.9458622643    -2.7105242152
   30      H      -4.5081444871     1.5030629209    -2.6295373603
   31      H      -3.6474319705     2.6844093911    -0.2055815214
   32      O       0.9039264325    -0.8093950573    -0.5824775541
   33      C      -0.3736172905     1.7278704346     1.8223720798
   34      C       3.9643587782     1.5132569364    -0.6567139901
   35      C       5.4899333524     1.3682662698    -0.2815128761
   36      C       5.6739687928    -0.1921040359    -0.3790510566
   37      C       4.2386515450    -0.6416233745    -0.8651521921
   38      O       3.7749611148     0.4822827547    -1.7058042987
   39      H       3.5512449860     1.2782274555     1.5274372200
   40      H       3.6594421256    -1.0814736327     1.2653463274
   41      H      -0.9208938927     1.7275170648     0.8451471635
   42      H       3.6450461690     2.5048339545    -1.0322835358
   43      H       6.1204339506     1.8938277324    -1.0163018306
   44      H       5.7118990504     1.7625684356     0.7228027905
   45      H       6.4367658946    -0.4661123057    -1.1251468669
   46      H       5.9423252193    -0.6510666405     0.5857994719
   47      H       4.2102665001    -1.5936122724    -1.4305286634
   48      H      -0.2852463712     2.7694705935     2.1930449319
   49      H      -0.9280326206     1.1233801034     2.5620816566
   50      H      -4.8369398311    -1.9656509028     3.3888322139
   51      H      -4.8647353633    -0.1748556382     3.6537713914
   52      H      -3.2881846157    -1.0397272776     3.5328977702
   53      H      -0.9190293146    -4.2910052354     0.6614483355
   54      H      -0.3497970374    -2.7493019630     1.4293893926
   55      H       1.2852108399    -4.5513321005    -0.0926059141
   56      H       0.8167342127    -3.3121212037    -1.3222931496
 ----------------------------------------------------------------

    9   -1510.3010767644      4.66E-09 Convergence criterion met
 Total energy in the final basis set = -1510.30107676
 Final energy is   -1510.30107676435
 **  OPTIMIZATION CONVERGED  **

                    Orbital Energies (a.u.)
 --------------------------------------------------------------

 Alpha MOs
 -- Occupied --
-18.939 -18.933 -18.924 -18.903 -18.898 -18.883 -18.883 -18.878
-18.868 -18.848 -10.106 -10.102 -10.093 -10.078 -10.076 -10.071
-10.059 -10.059 -10.057 -10.053 -10.051 -10.036 -10.036 -10.034
-10.025 -10.018 -10.018 -10.016 -10.015 -10.009  -1.020  -1.011
 -1.001  -0.983  -0.972  -0.966  -0.944  -0.938  -0.929  -0.909
 -0.762  -0.758  -0.726  -0.719  -0.711  -0.701  -0.694  -0.657
 -0.631  -0.618  -0.592  -0.577  -0.544  -0.539  -0.535  -0.531
 -0.512  -0.504  -0.481  -0.464  -0.459  -0.449  -0.448  -0.445
 -0.436  -0.429  -0.425  -0.412  -0.406  -0.400  -0.397  -0.390
 -0.378  -0.375  -0.374  -0.361  -0.354  -0.353  -0.349  -0.345
 -0.341  -0.334  -0.329  -0.328  -0.325  -0.321  -0.317  -0.307
 -0.305  -0.302  -0.297  -0.295  -0.295  -0.279  -0.271  -0.269
 -0.265  -0.257  -0.249  -0.246  -0.239  -0.230  -0.216  -0.190
 -0.172  -0.168  -0.160  -0.157  -0.154  -0.146  -0.141  -0.139
 -0.128

          Ground-State Mulliken Net Atomic Charges

     Atom                 Charge (a.u.)
  ----------------------------------------
      1 O                    -0.216115
      2 C                     0.209774
      3 C                    -0.081249
      4 C                    -0.077554
      5 C                     0.218663
      6 O                    -0.172400
      7 C                    -0.050385
      8 C                    -0.056696
      9 O                    -0.171790
     10 C                     0.221820
     11 C                    -0.079091
     12 C                    -0.080694
     13 C                     0.214513
     14 O                    -0.212179
     15 O                    -0.180845
     16 O                    -0.175538
     17 O                    -0.213656
     18 C                    -0.128940
     19 C                     0.023331
     20 C                    -0.142579
     21 C                    -0.143534
     22 C                     0.026853
     23 O                    -0.178425
     24 H                     0.087434
     25 H                     0.084867
     26 H                     0.111245
     27 H                     0.082487
     28 H                     0.073623
     29 H                     0.079818
     30 H                     0.072843
     31 H                     0.090352
     32 O                    -0.213435
     33 C                    -0.151295
     34 C                     0.024109
     35 C                    -0.143708
     36 C                    -0.143990
     37 C                     0.025072
     38 O                    -0.190400
     39 H                     0.082372
     40 H                     0.087382
     41 H                     0.118449
     42 H                     0.090708
     43 H                     0.077146
     44 H                     0.073433
     45 H                     0.077145
     46 H                     0.073502
     47 H                     0.080266
     48 H                     0.068887
     49 H                     0.086002
     50 H                     0.086982
     51 H                     0.088197
     52 H                     0.092270
     53 H                     0.085107
     54 H                     0.105702
     55 H                     0.090351
     56 H                     0.093795
  ----------------------------------------
  Sum of atomic charges =     0.000000

                    Cartesian Multipole Moments
 -----------------------------------------------------------------
    Charge (ESU x 10^10)
                -0.0000
    Dipole Moment (Debye)
         X      -0.1110      Y      -3.1226      Z      -0.2075
       Tot       3.1315
    Quadrupole Moments (Debye-Ang)
        XX    -141.3488     XY      -0.4014     YY    -154.6341
        XZ       5.8344     YZ      -1.4248     ZZ    -159.0938

 Total job time:  101.04s(wall), 4821.20s(cpu)
        *  Thank you very much for using Q-Chem.  Have a nice day.  *
