 Q-Chem 5.0, Q-Chem, Inc., Pleasanton, CA (2017)
 Q-Chem 5.0.1 for Intel X86 EM64T Linux

User input:
--------------------------------------------------------------
$molecule
0  1
O -3.94934 -3.66094 2.70899
C -3.26408 -4.56952 2.26188
C -3.36658 -6.02376 2.66595
C -2.30727 -6.55757 3.64409
C -1.36996 -5.53491 4.24717
O -0.38694 -6.16659 4.95434
C 0.54666 -5.26133 5.55279
C 1.46092 -4.6678 4.48603
O 1.32292 -3.23836 4.46336
C 1.23442 -2.68056 3.23041
C 1.11203 -1.17594 3.27274
C 1.02051 -0.49503 1.89932
C 0.70768 -1.40631 0.72953
O -0.28721 -1.33601 0.02256
O -2.45078 -4.32488 1.20792
O 1.76938 -2.10662 0.23892
O 1.2582 -3.37729 2.22999
C 1.73259 -2.88693 -0.8988
C -0.18415 -0.67757 3.93864
C 0.03189 0.73682 4.47135
C 0.11978 1.51533 3.17425
C -0.20597 0.40603 2.16543
O -1.06794 -0.45583 2.86864
H 1.99264 -0.80662 3.8461
H 1.92639 0.09445 1.63602
H -0.55349 -1.34417 4.74831
H -0.90494 1.02798 4.9988
H 0.89377 0.86609 5.16078
H -0.67333 2.29563 3.18058
H 1.10886 1.97597 2.96181
H -0.61639 0.85136 1.23246
O -1.42975 -4.32038 4.09716
C -2.50087 -3.16675 0.47049
C -4.63297 -6.28902 3.52016
C -5.01984 -7.76623 3.44533
C -3.92292 -8.38756 4.28211
C -3.19438 -7.12772 4.75908
O -4.20706 -6.15852 4.85449
H -3.47428 -6.62157 1.73273
H -1.66873 -7.31774 3.14038
H -2.28695 -2.29327 1.12068
H -5.50378 -5.66406 3.22297
H -5.98463 -7.87831 3.99056
H -5.13044 -8.18086 2.42035
H -4.39216 -8.91789 5.14047
H -3.24026 -9.07472 3.73664
H -2.62889 -7.33752 5.69369
H -3.50892 -3.04818 0.01847
H -1.76376 -3.24086 -0.35289
H 2.73055 -3.34391 -1.05868
H 1.47803 -2.26485 -1.78328
H 0.98205 -3.69775 -0.78093
H 2.50116 -4.83667 4.84186
H 1.40784 -5.23187 3.52812
H 1.1801 -5.89687 6.20955
H 0.07511 -4.50748 6.22359
$end

$opt
CONSTRAINT
tors           1           2           3           4    -101.695
tors           3           4           5           6    -172.361
tors           4           5           6           7    +179.742
tors           5           6           7           8     -73.421
tors           6           7           8           9    +120.105
tors           7           8           9          10    -135.976
tors           8           9          10          11    -179.139
tors           9          10          11          12    +179.510
tors          11          12          13          14    +117.484
ENDCONSTRAINT
$end

$rem
JOBTYPE                   OPT
METHOD                    B3LYP
DFT_D                     d3_op
BASIS                     STO-3G
GEOM_OPT_MAX_CYCLES       100
GEOM_OPT_TOL_GRADIENT     300
GEOM_OPT_TOL_DISPLACEMENT 1200
GEOM_OPT_TOL_ENERGY       100
SYMMETRY                  False
THRESH                    12
SCF_CONVERGENCE           8
MAX_SUB_FILE_NUM          128
MEM_STATIC                400
MEM_TOTAL                 4000
$end
--------------------------------------------------------------

   15   -1510.1485404132      6.09E-09 Convergence criterion met
 Total energy in the final basis set = -1510.14854041
   14   -1510.2191384785      3.82E-09 Convergence criterion met
 Total energy in the final basis set = -1510.21913848
   14   -1510.2416328225      7.22E-09 Convergence criterion met
 Total energy in the final basis set = -1510.24163282
   14   -1510.2752761031      4.12E-09 Convergence criterion met
 Total energy in the final basis set = -1510.27527610
   14   -1510.2803391019      4.47E-09 Convergence criterion met
 Total energy in the final basis set = -1510.28033910
   14   -1510.2862109880      6.12E-09 Convergence criterion met
 Total energy in the final basis set = -1510.28621099
   13   -1510.2907953148      6.68E-09 Convergence criterion met
 Total energy in the final basis set = -1510.29079531
   13   -1510.2935161908      3.77E-09 Convergence criterion met
   11   -1510.2963313497      7.27E-09 Convergence criterion met
 Total energy in the final basis set = -1510.29633135
   11   -1510.2963620889      5.01E-09 Convergence criterion met
 Total energy in the final basis set = -1510.29636209
   11   -1510.2963842329      4.62E-09 Convergence criterion met
 Total energy in the final basis set = -1510.29638423
    9   -1510.2963867158      9.78E-09 Convergence criterion met
 Total energy in the final basis set = -1510.29638672
    9   -1510.2964018021      5.07E-09 Convergence criterion met
 Total energy in the final basis set = -1510.29640180
    9   -1510.2964030063      3.55E-09 Convergence criterion met
 Total energy in the final basis set = -1510.29640301

             Standard Nuclear Orientation (Angstroms)
    I     Atom           X                Y                Z
 ----------------------------------------------------------------
    1      O      -1.5103437750     1.5304870901     1.9551801969
    2      C      -1.8569066728     1.5615848886     0.7551440475
    3      C      -3.2720174379     1.2099839916     0.1561887527
    4      C      -3.3848177093    -0.2180931954    -0.5154996661
    5      C      -2.1154501381    -1.1118999557    -0.3260464665
    6      O      -2.2885787048    -2.2886566712    -1.1310103452
    7      C      -1.1091163470    -3.1742207577    -0.9961477658
    8      C       0.1522428171    -2.6123122490    -1.7578052234
    9      O       1.2236781059    -2.4118035481    -0.7522075494
   10      C       1.8863457539    -1.1631093241    -0.9420689052
   11      C       3.0074966090    -1.0515620740     0.1444637695
   12      C       3.8354760682     0.2909060077     0.0404358996
   13      C       3.5261135279     1.1467800149    -1.2437742637
   14      O       3.0459263080     2.2996734054    -1.2945342875
   15      O      -1.0384443385     1.9852841754    -0.3348496865
   16      O       4.0946917942     0.4585510300    -2.3683151052
   17      O       1.5589544317    -0.3055087624    -1.7937928201
   18      C       3.7849634774     1.1974079033    -3.6119688022
   19      C       2.3437519965    -0.8823815449     1.5811123317
   20      C       3.4602720926    -1.0527852557     2.6832653449
   21      C       4.2210825398     0.3229254903     2.5691931613
   22      C       3.4295009484     1.0112909991     1.3902697014
   23      O       2.0367966721     0.5643291363     1.6335301913
   24      H       3.6485054376    -1.9494644313     0.0939562664
   25      H       4.9169869733     0.0642703447     0.0258329047
   26      H       1.4214169256    -1.4784529341     1.7268238407
   27      H       3.0014101768    -1.1803183315     3.6764642299
   28      H       4.1128012652    -1.9173066415     2.4807630132
   29      H       4.1239199082     0.9139780718     3.4937932816
   30      H       5.2906905550     0.1996349715     2.3361149737
   31      H       3.4763477141     2.1166932939     1.3480217699
   32      O      -1.1032943345    -0.8942680786     0.3743060552
   33      C       0.3123052999     2.3612922719     0.1459375968
   34      C      -4.3845717828     1.1004860794     1.2828691230
   35      C      -5.7965108243     1.2735683770     0.5990336772
   36      C      -5.9364666098    -0.1037047722    -0.1507830144
   37      C      -4.6081342865    -0.8329759330     0.2962801219
   38      O      -4.3691386732    -0.3315683513     1.6670739954
   39      H      -3.5267452493     1.9911446218    -0.5819378164
   40      H      -3.6063915007    -0.1538969596    -1.5959187760
   41      H       0.7977560164     1.5499052117     0.7413158014
   42      H      -4.1955370655     1.7355873704     2.1698728463
   43      H      -6.5821097436     1.3967456248     1.3616115591
   44      H      -5.8284223360     2.1370604388    -0.0843125765
   45      H      -6.8182990334    -0.6662918255     0.1945056707
   46      H      -5.9969437394     0.0103722257    -1.2450627760
   47      H      -4.6504139352    -1.9396472329     0.2823958094
   48      H       0.2660727367     3.2819123512     0.7623245298
   49      H       0.9280622113     2.5561686974    -0.7527289979
   50      H       4.3039942992     0.6606408112    -4.4273261334
   51      H       4.1442399564     2.2458328889    -3.5665862360
   52      H       2.6931027749     1.2055755108    -3.8085551149
   53      H       0.5090558106    -3.3398766120    -2.5178802023
   54      H      -0.0702371370    -1.6461522840    -2.2615199995
   55      H      -1.4258900378    -4.1443965692    -1.4271991611
   56      H      -0.8340675795    -3.3173778083     0.0716475945
 ----------------------------------------------------------------

    9   -1510.2964036539      2.94E-09 Convergence criterion met
 Total energy in the final basis set = -1510.29640365
 Final energy is   -1510.29640365392
 **  OPTIMIZATION CONVERGED  **

                    Orbital Energies (a.u.)
 --------------------------------------------------------------

 Alpha MOs
 -- Occupied --
-18.941 -18.936 -18.922 -18.901 -18.900 -18.888 -18.882 -18.880
-18.865 -18.844 -10.109 -10.101 -10.095 -10.078 -10.075 -10.073
-10.064 -10.062 -10.056 -10.056 -10.049 -10.043 -10.037 -10.034
-10.023 -10.022 -10.021 -10.016 -10.013 -10.009  -1.023  -1.014
 -1.001  -0.980  -0.977  -0.963  -0.946  -0.939  -0.927  -0.906
 -0.767  -0.756  -0.729  -0.720  -0.712  -0.703  -0.693  -0.656
 -0.631  -0.619  -0.593  -0.577  -0.548  -0.540  -0.537  -0.529
 -0.515  -0.505  -0.484  -0.465  -0.459  -0.453  -0.450  -0.443
 -0.435  -0.433  -0.424  -0.411  -0.405  -0.402  -0.399  -0.387
 -0.379  -0.375  -0.370  -0.364  -0.355  -0.352  -0.349  -0.345
 -0.339  -0.337  -0.330  -0.327  -0.326  -0.321  -0.315  -0.315
 -0.306  -0.306  -0.303  -0.297  -0.292  -0.280  -0.275  -0.269
 -0.263  -0.257  -0.253  -0.247  -0.241  -0.228  -0.217  -0.191
 -0.175  -0.167  -0.164  -0.157  -0.154  -0.146  -0.139  -0.138
 -0.125

          Ground-State Mulliken Net Atomic Charges

     Atom                 Charge (a.u.)
  ----------------------------------------
      1 O                    -0.216713
      2 C                     0.211897
      3 C                    -0.081782
      4 C                    -0.077599
      5 C                     0.212972
      6 O                    -0.174261
      7 C                    -0.050047
      8 C                    -0.054065
      9 O                    -0.171059
     10 C                     0.221288
     11 C                    -0.077238
     12 C                    -0.081668
     13 C                     0.218776
     14 O                    -0.218116
     15 O                    -0.180366
     16 O                    -0.175850
     17 O                    -0.206471
     18 C                    -0.128521
     19 C                     0.028760
     20 C                    -0.143423
     21 C                    -0.142660
     22 C                     0.025940
     23 O                    -0.181047
     24 H                     0.088324
     25 H                     0.085153
     26 H                     0.097425
     27 H                     0.081768
     28 H                     0.074088
     29 H                     0.080708
     30 H                     0.073872
     31 H                     0.092552
     32 O                    -0.205238
     33 C                    -0.153293
     34 C                     0.024599
     35 C                    -0.143813
     36 C                    -0.144090
     37 C                     0.024876
     38 O                    -0.190075
     39 H                     0.082194
     40 H                     0.086279
     41 H                     0.111542
     42 H                     0.088426
     43 H                     0.076681
     44 H                     0.073042
     45 H                     0.076845
     46 H                     0.072840
     47 H                     0.082371
     48 H                     0.069662
     49 H                     0.089948
     50 H                     0.086281
     51 H                     0.087865
     52 H                     0.092195
     53 H                     0.084898
     54 H                     0.104834
     55 H                     0.090193
     56 H                     0.098305
  ----------------------------------------
  Sum of atomic charges =     0.000000

                    Cartesian Multipole Moments
 -----------------------------------------------------------------
    Charge (ESU x 10^10)
                 0.0000
    Dipole Moment (Debye)
         X       1.2522      Y      -2.6430      Z      -2.1314
       Tot       3.6189
    Quadrupole Moments (Debye-Ang)
        XX    -140.6587     XY      -3.6048     YY    -154.8663
        XZ       8.3875     YZ       1.6190     ZZ    -159.5405

 Total job time:  59.65s(wall), 2842.20s(cpu)
        *  Thank you very much for using Q-Chem.  Have a nice day.  *
