 Q-Chem 5.0, Q-Chem, Inc., Pleasanton, CA (2017)
 Q-Chem 5.0.1 for Intel X86 EM64T Linux

User input:
--------------------------------------------------------------
$molecule
0  1
O -1.510343775 1.5304870901 1.9551801969
C -1.8569066728 1.5615848886 0.7551440475
C -3.2720174379 1.2099839916 0.1561887527
C -3.3848177093 -0.2180931954 -0.5154996661
C -2.1154501381 -1.1118999557 -0.3260464665
O -2.2885787048 -2.2886566712 -1.1310103452
C -1.109116347 -3.1742207577 -0.9961477658
C 0.1522428171 -2.612312249 -1.7578052234
O 1.2236781059 -2.4118035481 -0.7522075494
C 1.8863457539 -1.1631093241 -0.9420689052
C 3.007496609 -1.051562074 0.1444637695
C 3.8354760682 0.2909060077 0.0404358996
C 3.5261135279 1.1467800149 -1.2437742637
O 3.045926308 2.2996734054 -1.2945342875
O -1.0384443385 1.9852841754 -0.3348496865
O 4.0946917942 0.45855103 -2.3683151052
O 1.5589544317 -0.3055087624 -1.7937928201
C 3.7849634774 1.1974079033 -3.6119688022
C 2.3437519965 -0.8823815449 1.5811123317
C 3.4602720926 -1.0527852557 2.6832653449
C 4.2210825398 0.3229254903 2.5691931613
C 3.4295009484 1.0112909991 1.3902697014
O 2.0367966721 0.5643291363 1.6335301913
H 3.6485054376 -1.9494644313 0.0939562664
H 4.9169869733 0.0642703447 0.0258329047
H 1.4214169256 -1.4784529341 1.7268238407
H 3.0014101768 -1.1803183315 3.6764642299
H 4.1128012652 -1.9173066415 2.4807630132
H 4.1239199082 0.9139780718 3.4937932816
H 5.290690555 0.1996349715 2.3361149737
H 3.4763477141 2.1166932939 1.3480217699
O -1.1032943345 -0.8942680786 0.3743060552
C 0.3123052999 2.3612922719 0.1459375968
C -4.3845717828 1.1004860794 1.282869123
C -5.7965108243 1.273568377 0.5990336772
C -5.9364666098 -0.1037047722 -0.1507830144
C -4.6081342865 -0.832975933 0.2962801219
O -4.3691386732 -0.3315683513 1.6670739954
H -3.5267452493 1.9911446218 -0.5819378164
H -3.6063915007 -0.1538969596 -1.595918776
H 0.7977560164 1.5499052117 0.7413158014
H -4.1955370655 1.7355873704 2.1698728463
H -6.5821097436 1.3967456248 1.3616115591
H -5.828422336 2.1370604388 -0.0843125765
H -6.8182990334 -0.6662918255 0.1945056707
H -5.9969437394 0.0103722257 -1.245062776
H -4.6504139352 -1.9396472329 0.2823958094
H 0.2660727367 3.2819123512 0.7623245298
H 0.9280622113 2.5561686974 -0.7527289979
H 4.3039942992 0.6606408112 -4.4273261334
H 4.1442399564 2.2458328889 -3.566586236
H 2.6931027749 1.2055755108 -3.8085551149
H 0.5090558106 -3.339876612 -2.5178802023
H -0.070237137 -1.646152284 -2.2615199995
H -1.4258900378 -4.1443965692 -1.4271991611
H -0.8340675795 -3.3173778083 0.0716475945
$end

$rem
JOBTYPE                   OPT
METHOD                    B3LYP
DFT_D                     d3_op
BASIS                     STO-3G
GEOM_OPT_MAX_CYCLES       100
GEOM_OPT_TOL_GRADIENT     300
GEOM_OPT_TOL_DISPLACEMENT 1200
GEOM_OPT_TOL_ENERGY       100
SYMMETRY                  False
THRESH                    12
SCF_CONVERGENCE           8
MAX_SUB_FILE_NUM          128
MEM_STATIC                400
MEM_TOTAL                 4000
$end
--------------------------------------------------------------

   16   -1510.2963263599      6.07E-09 Convergence criterion met
 Total energy in the final basis set = -1510.29632636
   14   -1510.2831661014      2.75E-09 Convergence criterion met
 Total energy in the final basis set = -1510.28316610
   14   -1510.2881926230      3.15E-09 Convergence criterion met
 Total energy in the final basis set = -1510.28819262
   14   -1510.2976995050      4.49E-09 Convergence criterion met
 Total energy in the final basis set = -1510.29769951
   14   -1510.2933961574      2.73E-09 Convergence criterion met
 Total energy in the final basis set = -1510.29339616
   14   -1510.2914453087      2.91E-09 Convergence criterion met
 Total energy in the final basis set = -1510.29144531
   14   -1510.2960725775      3.86E-09 Convergence criterion met
 Total energy in the final basis set = -1510.29607258
   14   -1510.2969708717      2.89E-09 Convergence criterion met
   11   -1510.3008282029      7.85E-09 Convergence criterion met
 Total energy in the final basis set = -1510.30082820
    9   -1510.3008260544      9.37E-09 Convergence criterion met
 Total energy in the final basis set = -1510.30082605
    9   -1510.3008293690      7.38E-09 Convergence criterion met
 Total energy in the final basis set = -1510.30082937
    9   -1510.3008304302      7.38E-09 Convergence criterion met
 Total energy in the final basis set = -1510.30083043
   11   -1510.3008301774      5.09E-09 Convergence criterion met
 Total energy in the final basis set = -1510.30083018
    9   -1510.3008305754      8.16E-09 Convergence criterion met
 Total energy in the final basis set = -1510.30083058

             Standard Nuclear Orientation (Angstroms)
    I     Atom           X                Y                Z
 ----------------------------------------------------------------
    1      O       1.1323393794     2.3354583386     0.0607034162
    2      C       1.6114738254     1.4521938122     0.8040485534
    3      C       3.0862302694     0.8991947937     0.7809425810
    4      C       3.2330032072    -0.6319997423     0.4176491591
    5      C       1.9228023134    -1.2779451764    -0.1414443070
    6      O       2.0548158566    -2.6981966739    -0.0165925176
    7      C       0.9797637968    -3.4174984338    -0.7407187490
    8      C      -0.4489536109    -3.3164090588    -0.0796069136
    9      O      -1.3001911728    -2.4155648811    -0.8898597067
   10      C      -1.7763818088    -1.3232307207    -0.0959275372
   11      C      -2.5145767614    -0.3261410461    -1.0434343961
   12      C      -3.6911880925     0.4765661863    -0.3497896595
   13      C      -3.8296086422     0.1761825968     1.1875710343
   14      O      -3.5515684169     0.9325037515     2.1414258089
   15      O       0.9423813919     0.8264028519     1.8951241531
   16      O      -4.4131800827    -1.1267115104     1.3257819833
   17      O      -1.6036210899    -1.2266525408     1.1398926438
   18      C      -4.4625281895    -1.5047472632     2.7554808950
   19      C      -1.5480741715     0.8640481336    -1.4853573706
   20      C      -2.1713394252     1.5484416287    -2.7597659072
   21      C      -3.3940245106     2.3164922887    -2.1272420703
   22      C      -3.2251237123     1.9674400052    -0.5974839479
   23      O      -1.7537947919     1.8859676158    -0.4349224760
   24      H      -2.8680472351    -0.8903332403    -1.9237812849
   25      H      -4.6564991531     0.2516892588    -0.8380308904
   26      H      -0.4776433896     0.5761701547    -1.5347962922
   27      H      -1.4468877113     2.2467126339    -3.2084396287
   28      H      -2.4752684848     0.8135586432    -3.5222225020
   29      H      -3.3115098768     3.4036475677    -2.2838742445
   30      H      -4.3629600045     1.9748649265    -2.5253967159
   31      H      -3.6483335552     2.7004219691     0.1161883398
   32      O       0.9491726295    -0.7030578527    -0.6745342395
   33      C      -0.4181381015     1.3937160729     2.0825314022
   34      C       3.9657777313     1.5727285753    -0.3546806429
   35      C       5.4826034114     1.4235929314     0.0520214190
   36      C       5.6966617218    -0.1203049116    -0.1682739262
   37      C       4.2957400473    -0.5455647748    -0.7648073327
   38      O       3.8402197066     0.6492649884    -1.5087252332
   39      H       3.5225742095     1.0859658298     1.7787282179
   40      H       3.5990149660    -1.2392676604     1.2638982340
   41      H      -0.9398355873     1.5744937576     1.1081682390
   42      H       3.6320903669     2.5900241262    -0.6380233878
   43      H       6.1219887407     2.0172333234    -0.6209667237
   44      H       5.6715453898     1.7385038368     1.0905509673
   45      H       6.5016426167    -0.3209525316    -0.8927802936
   46      H       5.9225503389    -0.6552145583     0.7680453505
   47      H       4.3160380945    -1.4353115674    -1.4240538706
   48      H      -0.3558467075     2.3449396491     2.6495762469
   49      H      -0.9807709616     0.6511076689     2.6760577162
   50      H      -4.9782930949    -2.4816197922     2.7986420229
   51      H      -5.0215897088    -0.7605191603     3.3584187592
   52      H      -3.4405085105    -1.6052862108     3.1757883704
   53      H      -0.9250692658    -4.3194444035    -0.0664990152
   54      H      -0.3919539018    -2.9220560303     0.9593859956
   55      H       1.3139900673    -4.4743683373    -0.7470864646
   56      H       0.9023053079    -3.0564117970    -1.7901282549
 ----------------------------------------------------------------

    9   -1510.3008304496      2.17E-09 Convergence criterion met
 Total energy in the final basis set = -1510.30083045
 Final energy is   -1510.30083044961
 **  OPTIMIZATION CONVERGED  **

                    Orbital Energies (a.u.)
 --------------------------------------------------------------

 Alpha MOs
 -- Occupied --
-18.939 -18.934 -18.924 -18.903 -18.898 -18.884 -18.883 -18.878
-18.867 -18.848 -10.106 -10.102 -10.093 -10.078 -10.077 -10.071
-10.059 -10.058 -10.057 -10.053 -10.051 -10.036 -10.036 -10.034
-10.025 -10.018 -10.018 -10.016 -10.015 -10.009  -1.020  -1.011
 -1.001  -0.983  -0.972  -0.966  -0.944  -0.938  -0.928  -0.910
 -0.762  -0.758  -0.726  -0.719  -0.711  -0.701  -0.694  -0.656
 -0.632  -0.618  -0.592  -0.577  -0.544  -0.539  -0.534  -0.531
 -0.511  -0.504  -0.481  -0.464  -0.459  -0.449  -0.449  -0.444
 -0.436  -0.429  -0.425  -0.412  -0.406  -0.400  -0.397  -0.390
 -0.378  -0.375  -0.374  -0.361  -0.354  -0.353  -0.349  -0.345
 -0.341  -0.334  -0.329  -0.328  -0.325  -0.321  -0.317  -0.307
 -0.305  -0.302  -0.297  -0.295  -0.294  -0.279  -0.271  -0.269
 -0.265  -0.257  -0.249  -0.246  -0.239  -0.230  -0.215  -0.190
 -0.172  -0.168  -0.160  -0.157  -0.153  -0.145  -0.141  -0.139
 -0.129

          Ground-State Mulliken Net Atomic Charges

     Atom                 Charge (a.u.)
  ----------------------------------------
      1 O                    -0.216380
      2 C                     0.210103
      3 C                    -0.081308
      4 C                    -0.077025
      5 C                     0.219282
      6 O                    -0.172349
      7 C                    -0.050310
      8 C                    -0.056780
      9 O                    -0.171227
     10 C                     0.221613
     11 C                    -0.079156
     12 C                    -0.080759
     13 C                     0.214666
     14 O                    -0.212371
     15 O                    -0.181430
     16 O                    -0.175699
     17 O                    -0.214117
     18 C                    -0.128977
     19 C                     0.023246
     20 C                    -0.142479
     21 C                    -0.143663
     22 C                     0.027074
     23 O                    -0.178634
     24 H                     0.087456
     25 H                     0.084945
     26 H                     0.111672
     27 H                     0.082579
     28 H                     0.073578
     29 H                     0.079827
     30 H                     0.072918
     31 H                     0.090254
     32 O                    -0.213460
     33 C                    -0.151966
     34 C                     0.023660
     35 C                    -0.143252
     36 C                    -0.144255
     37 C                     0.024690
     38 O                    -0.191090
     39 H                     0.082307
     40 H                     0.087792
     41 H                     0.119195
     42 H                     0.090718
     43 H                     0.077093
     44 H                     0.073447
     45 H                     0.077187
     46 H                     0.073573
     47 H                     0.080476
     48 H                     0.068802
     49 H                     0.085930
     50 H                     0.086913
     51 H                     0.088159
     52 H                     0.091998
     53 H                     0.085128
     54 H                     0.105847
     55 H                     0.090403
     56 H                     0.094154
  ----------------------------------------
  Sum of atomic charges =     0.000000

                    Cartesian Multipole Moments
 -----------------------------------------------------------------
    Charge (ESU x 10^10)
                -0.0000
    Dipole Moment (Debye)
         X      -0.0444      Y      -2.9581      Z      -0.6954
       Tot       3.0390
    Quadrupole Moments (Debye-Ang)
        XX    -141.9383     XY      -1.0477     YY    -154.0538
        XZ       6.3441     YZ      -1.0366     ZZ    -159.3407

 Total job time:  102.61s(wall), 4897.49s(cpu)
        *  Thank you very much for using Q-Chem.  Have a nice day.  *
