 Q-Chem 5.0, Q-Chem, Inc., Pleasanton, CA (2017)
 Q-Chem 5.0.1 for Intel X86 EM64T Linux

User input:
--------------------------------------------------------------
$molecule
0  1
O -3.94934 -3.66094 2.70899
C -3.26408 -4.56952 2.26188
C -3.36658 -6.02376 2.66595
C -2.30727 -6.55757 3.64409
C -1.36996 -5.53491 4.24717
O -0.37954 -6.16701 4.94354
C 0.58969 -5.26518 5.48811
C 1.48388 -4.72179 4.37848
O 1.50273 -3.28636 4.42392
C 1.28992 -2.6626 3.23869
C 1.32707 -1.15707 3.35114
C 1.10296 -0.40368 2.03188
C 0.53098 -1.22263 0.8922
O -0.54512 -1.0241 0.34708
O -2.45548 -4.3118 1.20634
O 1.4497 -1.971 0.21717
O 1.10423 -3.30419 2.21809
C 1.19941 -2.68694 -0.93484
C 0.19754 -0.57454 4.22125
C 0.62775 0.78548 4.76542
C 0.60219 1.6159 3.49831
C 0.02424 0.59311 2.51124
O -0.80694 -0.21942 3.3045
H 2.31413 -0.90026 3.79878
H 2.01395 0.11248 1.65598
H -0.11366 -1.2435 5.05315
H -0.18879 1.13544 5.43728
H 1.58943 0.80004 5.32206
H -0.09996 2.46531 3.65126
H 1.5905 1.9925 3.15618
H -0.47181 1.12084 1.66703
O -1.42517 -4.32076 4.09025
C -2.56689 -3.16279 0.45701
C -4.63297 -6.28915 3.52002
C -5.01941 -7.7665 3.44547
C -3.92266 -8.38731 4.28291
C -3.19424 -7.1272 4.7593
O -4.20711 -6.15813 4.85434
H -3.47373 -6.62101 1.73239
H -1.66916 -7.31823 3.1405
H -2.4436 -2.27455 1.10924
H -5.50385 -5.66444 3.22256
H -5.98441 -7.8788 3.99028
H -5.12935 -8.18129 2.42049
H -4.39207 -8.91695 5.14159
H -3.24 -9.07497 3.73806
H -2.62842 -7.3364 5.69387
H -3.56948 -3.11952 -0.02003
H -1.80622 -3.17158 -0.34543
H 2.13805 -3.17477 -1.26833
H 0.84251 -2.01019 -1.74019
H 0.44752 -3.47755 -0.73789
H 2.52153 -5.05625 4.59696
H 1.24776 -5.20607 3.40516
H 1.22672 -5.85462 6.18271
H 0.1212 -4.46761 6.10972
$end

$opt
CONSTRAINT
tors           1           2           3           4    -101.695
tors           3           4           5           6    -171.777
tors           4           5           6           7    +176.962
tors           5           6           7           8     -73.421
tors           6           7           8           9    +127.159
tors           7           8           9          10    -131.390
tors           8           9          10          11    -179.777
tors           9          10          11          12    +179.510
tors          11          12          13          14    +117.484
ENDCONSTRAINT
$end

$rem
JOBTYPE                   OPT
METHOD                    B3LYP
DFT_D                     d3_op
BASIS                     STO-3G
GEOM_OPT_MAX_CYCLES       100
GEOM_OPT_TOL_GRADIENT     300
GEOM_OPT_TOL_DISPLACEMENT 1200
GEOM_OPT_TOL_ENERGY       100
SYMMETRY                  False
THRESH                    12
SCF_CONVERGENCE           8
MAX_SUB_FILE_NUM          128
MEM_STATIC                400
MEM_TOTAL                 4000
$end
--------------------------------------------------------------

   15   -1510.1483108365      6.18E-09 Convergence criterion met
 Total energy in the final basis set = -1510.14831084
   14   -1510.2179237562      4.77E-09 Convergence criterion met
 Total energy in the final basis set = -1510.21792376
   15   -1510.2402415148      3.62E-09 Convergence criterion met
 Total energy in the final basis set = -1510.24024151
   14   -1510.2719831558      3.67E-09 Convergence criterion met
 Total energy in the final basis set = -1510.27198316
   13   -1510.2802624042      6.92E-09 Convergence criterion met
 Total energy in the final basis set = -1510.28026240
   13   -1510.2859692441      5.45E-09 Convergence criterion met
 Total energy in the final basis set = -1510.28596924
   13   -1510.2895762156      4.47E-09 Convergence criterion met
 Total energy in the final basis set = -1510.28957622
   13   -1510.2916450779      3.50E-09 Convergence criterion met
   11   -1510.2963922846      7.79E-09 Convergence criterion met
 Total energy in the final basis set = -1510.29639228
   11   -1510.2964854277      6.09E-09 Convergence criterion met
 Total energy in the final basis set = -1510.29648543
   10   -1510.2965533371      7.37E-09 Convergence criterion met
 Total energy in the final basis set = -1510.29655334
   11   -1510.2965823162      5.88E-09 Convergence criterion met
 Total energy in the final basis set = -1510.29658232
   10   -1510.2965918504      4.65E-09 Convergence criterion met
 Total energy in the final basis set = -1510.29659185
    9   -1510.2965958382      4.30E-09 Convergence criterion met
 Total energy in the final basis set = -1510.29659584

             Standard Nuclear Orientation (Angstroms)
    I     Atom           X                Y                Z
 ----------------------------------------------------------------
    1      O      -1.6824923996     1.1917018577     2.2707420459
    2      C      -1.9335839457     1.3475052773     1.0562591519
    3      C      -3.3151482915     1.0982786608     0.3372361724
    4      C      -3.4162722312    -0.2597348001    -0.4691176804
    5      C      -2.1221815973    -1.1321862251    -0.3917525056
    6      O      -2.2653542910    -2.2283200639    -1.3092142565
    7      C      -1.0252464708    -3.0390011952    -1.3178718199
    8      C       0.1584505996    -2.3154870077    -2.0700776621
    9      O       1.3385195839    -2.2833884536    -1.1721331584
   10      C       1.8941024072    -0.9681311853    -1.1259910557
   11      C       3.1348023896    -0.9886424589    -0.1736685967
   12      C       3.8336909217     0.4253979950    -0.0627015753
   13      C       3.3494227066     1.4785217806    -1.1280282043
   14      O       2.7707150583     2.5687280928    -0.9268645306
   15      O      -1.0331524588     1.8883769196     0.0902278369
   16      O       3.8539811386     1.0593326163    -2.4040102245
   17      O       1.4146831869     0.0239278769    -1.7220550203
   18      C       3.3679439341     1.9765923504    -3.4583051516
   19      C       2.6462994888    -1.1937524668     1.3256221429
   20      C       3.9044880882    -1.4298988355     2.2502134854
   21      C       4.4764167757     0.0329905460     2.3777722162
   22      C       3.4921206939     0.8237060824     1.4331254511
   23      O       2.1908382291     0.1637354719     1.7016117190
   24      H       3.8307187458    -1.7835983592    -0.4959819157
   25      H       4.9249679117     0.3118481091    -0.1950273114
   26      H       1.8223341765    -1.9254675898     1.4361907909
   27      H       3.5932157408    -1.8303712147     3.2279593992
   28      H       4.6239658579    -2.1290048624     1.7945181754
   29      H       4.3981481790     0.4055067041     3.4115636865
   30      H       5.5252571083     0.1117041261     2.0495502740
   31      H       3.4134028255     1.9141308324     1.6080460940
   32      O      -1.1072176081    -0.9517839062     0.3163092393
   33      C       0.2819418241     2.1568217601     0.7181672166
   34      C      -4.4768253935     0.9003654873     1.3976973975
   35      C      -5.8630959441     1.1019812815     0.6693197982
   36      C      -5.9693580404    -0.2354556090    -0.1541997966
   37      C      -4.6353999130    -0.9643913567     0.2754397871
   38      O      -4.4468553055    -0.5545504725     1.6831129823
   39      H      -3.5126404970     1.9545137780    -0.3318241443
   40      H      -3.6502131906    -0.0881426221    -1.5352051090
   41      H       0.7605473684     1.2304717187     1.1149085737
   42      H      -4.3366276329     1.4745288673     2.3339101141
   43      H      -6.6782150610     1.1875363940     1.4055212383
   44      H      -5.8697545962     1.9981552961     0.0285903256
   45      H      -6.8457855812    -0.8302493329     0.1486164222
   46      H      -6.0170921179    -0.0651339017    -1.2417602151
   47      H      -4.6490867044    -2.0679799327     0.1830320305
   48      H       0.1843659899     2.8918433212     1.5421044030
   49      H       0.9401503927     2.5687398088    -0.0725620978
   50      H       3.8227211172     1.6273987156    -4.4035462036
   51      H       3.6719482618     3.0251784748    -3.2628410150
   52      H       2.2622363722     1.9376766584    -3.5405215049
   53      H       0.4332114417    -2.8705541360    -2.9917324332
   54      H      -0.1114093966    -1.2717098752    -2.3435602139
   55      H      -1.2972696384    -3.9813897479    -1.8323683167
   56      H      -0.6916225239    -3.2682567599    -0.2820784106
 ----------------------------------------------------------------

    9   -1510.2965961510      2.37E-09 Convergence criterion met
 Total energy in the final basis set = -1510.29659615
 Final energy is   -1510.29659615098
 **  OPTIMIZATION CONVERGED  **

                    Orbital Energies (a.u.)
 --------------------------------------------------------------

 Alpha MOs
 -- Occupied --
-18.943 -18.936 -18.925 -18.899 -18.898 -18.890 -18.883 -18.880
-18.869 -18.840 -10.110 -10.101 -10.098 -10.078 -10.074 -10.071
-10.066 -10.062 -10.057 -10.056 -10.048 -10.045 -10.038 -10.034
-10.024 -10.022 -10.021 -10.015 -10.013 -10.006  -1.024  -1.014
 -1.003  -0.978  -0.977  -0.963  -0.947  -0.939  -0.930  -0.903
 -0.768  -0.755  -0.730  -0.720  -0.712  -0.703  -0.693  -0.658
 -0.629  -0.619  -0.594  -0.576  -0.549  -0.541  -0.537  -0.528
 -0.515  -0.505  -0.484  -0.467  -0.460  -0.456  -0.449  -0.443
 -0.434  -0.434  -0.424  -0.412  -0.406  -0.402  -0.399  -0.388
 -0.380  -0.375  -0.371  -0.365  -0.355  -0.352  -0.349  -0.347
 -0.340  -0.336  -0.329  -0.327  -0.325  -0.320  -0.316  -0.314
 -0.307  -0.307  -0.303  -0.296  -0.291  -0.280  -0.276  -0.269
 -0.263  -0.257  -0.252  -0.248  -0.240  -0.227  -0.218  -0.191
 -0.176  -0.169  -0.166  -0.156  -0.154  -0.148  -0.138  -0.137
 -0.122

          Ground-State Mulliken Net Atomic Charges

     Atom                 Charge (a.u.)
  ----------------------------------------
      1 O                    -0.219716
      2 C                     0.212235
      3 C                    -0.081772
      4 C                    -0.078268
      5 C                     0.212569
      6 O                    -0.173567
      7 C                    -0.050628
      8 C                    -0.055974
      9 O                    -0.171010
     10 C                     0.221544
     11 C                    -0.076641
     12 C                    -0.081303
     13 C                     0.220968
     14 O                    -0.217122
     15 O                    -0.179385
     16 O                    -0.175551
     17 O                    -0.204387
     18 C                    -0.128516
     19 C                     0.028283
     20 C                    -0.143751
     21 C                    -0.142430
     22 C                     0.025415
     23 O                    -0.182217
     24 H                     0.088915
     25 H                     0.085258
     26 H                     0.093598
     27 H                     0.081228
     28 H                     0.074197
     29 H                     0.080737
     30 H                     0.074028
     31 H                     0.092657
     32 O                    -0.203414
     33 C                    -0.154408
     34 C                     0.025052
     35 C                    -0.144325
     36 C                    -0.143689
     37 C                     0.025165
     38 O                    -0.189087
     39 H                     0.082073
     40 H                     0.085480
     41 H                     0.105529
     42 H                     0.088516
     43 H                     0.076716
     44 H                     0.072890
     45 H                     0.076817
     46 H                     0.072572
     47 H                     0.082527
     48 H                     0.070513
     49 H                     0.095057
     50 H                     0.086792
     51 H                     0.088175
     52 H                     0.093101
     53 H                     0.084575
     54 H                     0.105949
     55 H                     0.090141
     56 H                     0.097888
  ----------------------------------------
  Sum of atomic charges =     0.000000

                    Cartesian Multipole Moments
 -----------------------------------------------------------------
    Charge (ESU x 10^10)
                -0.0000
    Dipole Moment (Debye)
         X       1.6851      Y      -2.1668      Z      -2.9399
       Tot       4.0222
    Quadrupole Moments (Debye-Ang)
        XX    -139.6654     XY      -3.9389     YY    -155.3168
        XZ       8.2130     YZ       1.4355     ZZ    -160.1090

 Total job time:  60.54s(wall), 2885.67s(cpu)
        *  Thank you very much for using Q-Chem.  Have a nice day.  *
