 Q-Chem 5.0, Q-Chem, Inc., Pleasanton, CA (2017)
 Q-Chem 5.0.1 for Intel X86 EM64T Linux

User input:
--------------------------------------------------------------
$molecule
0  1
O -1.6824923996 1.1917018577 2.2707420459
C -1.9335839457 1.3475052773 1.0562591519
C -3.3151482915 1.0982786608 0.3372361724
C -3.4162722312 -0.2597348001 -0.4691176804
C -2.1221815973 -1.1321862251 -0.3917525056
O -2.265354291 -2.2283200639 -1.3092142565
C -1.0252464708 -3.0390011952 -1.3178718199
C 0.1584505996 -2.3154870077 -2.0700776621
O 1.3385195839 -2.2833884536 -1.1721331584
C 1.8941024072 -0.9681311853 -1.1259910557
C 3.1348023896 -0.9886424589 -0.1736685967
C 3.8336909217 0.425397995 -0.0627015753
C 3.3494227066 1.4785217806 -1.1280282043
O 2.7707150583 2.5687280928 -0.9268645306
O -1.0331524588 1.8883769196 0.0902278369
O 3.8539811386 1.0593326163 -2.4040102245
O 1.4146831869 0.0239278769 -1.7220550203
C 3.3679439341 1.9765923504 -3.4583051516
C 2.6462994888 -1.1937524668 1.3256221429
C 3.9044880882 -1.4298988355 2.2502134854
C 4.4764167757 0.032990546 2.3777722162
C 3.4921206939 0.8237060824 1.4331254511
O 2.1908382291 0.1637354719 1.701611719
H 3.8307187458 -1.7835983592 -0.4959819157
H 4.9249679117 0.3118481091 -0.1950273114
H 1.8223341765 -1.9254675898 1.4361907909
H 3.5932157408 -1.8303712147 3.2279593992
H 4.6239658579 -2.1290048624 1.7945181754
H 4.398148179 0.4055067041 3.4115636865
H 5.5252571083 0.1117041261 2.049550274
H 3.4134028255 1.9141308324 1.608046094
O -1.1072176081 -0.9517839062 0.3163092393
C 0.2819418241 2.1568217601 0.7181672166
C -4.4768253935 0.9003654873 1.3976973975
C -5.8630959441 1.1019812815 0.6693197982
C -5.9693580404 -0.235455609 -0.1541997966
C -4.635399913 -0.9643913567 0.2754397871
O -4.4468553055 -0.5545504725 1.6831129823
H -3.512640497 1.954513778 -0.3318241443
H -3.6502131906 -0.0881426221 -1.535205109
H 0.7605473684 1.2304717187 1.1149085737
H -4.3366276329 1.4745288673 2.3339101141
H -6.678215061 1.187536394 1.4055212383
H -5.8697545962 1.9981552961 0.0285903256
H -6.8457855812 -0.8302493329 0.1486164222
H -6.0170921179 -0.0651339017 -1.2417602151
H -4.6490867044 -2.0679799327 0.1830320305
H 0.1843659899 2.8918433212 1.542104403
H 0.9401503927 2.5687398088 -0.0725620978
H 3.8227211172 1.6273987156 -4.4035462036
H 3.6719482618 3.0251784748 -3.262841015
H 2.2622363722 1.9376766584 -3.5405215049
H 0.4332114417 -2.870554136 -2.9917324332
H -0.1114093966 -1.2717098752 -2.3435602139
H -1.2972696384 -3.9813897479 -1.8323683167
H -0.6916225239 -3.2682567599 -0.2820784106
$end

$rem
JOBTYPE                   OPT
METHOD                    B3LYP
DFT_D                     d3_op
BASIS                     STO-3G
GEOM_OPT_MAX_CYCLES       100
GEOM_OPT_TOL_GRADIENT     300
GEOM_OPT_TOL_DISPLACEMENT 1200
GEOM_OPT_TOL_ENERGY       100
SYMMETRY                  False
THRESH                    12
SCF_CONVERGENCE           8
MAX_SUB_FILE_NUM          128
MEM_STATIC                400
MEM_TOTAL                 4000
$end
--------------------------------------------------------------

   16   -1510.2966721796      6.04E-09 Convergence criterion met
 Total energy in the final basis set = -1510.29667218
   14   -1510.2929196009      1.97E-09 Convergence criterion met
 Total energy in the final basis set = -1510.29291960
   13   -1510.2964699124      9.08E-09 Convergence criterion met
 Total energy in the final basis set = -1510.29646991
   18   -1509.6570694420      8.09E-09 Convergence criterion met
 Total energy in the final basis set = -1509.65706944
   16   -1510.2859522915      5.04E-09 Convergence criterion met
 Total energy in the final basis set = -1510.28595229
   13   -1510.2899640163      6.56E-09 Convergence criterion met
 Total energy in the final basis set = -1510.28996402
   14   -1510.2874822229      2.96E-09 Convergence criterion met
 Total energy in the final basis set = -1510.28748222
   13   -1510.2896979679      7.15E-09 Convergence criterion met
   12   -1510.3008818559      5.17E-09 Convergence criterion met
 Total energy in the final basis set = -1510.30088186
   12   -1510.3009062040      2.38E-09 Convergence criterion met
 Total energy in the final basis set = -1510.30090620
   11   -1510.3009211273      5.89E-09 Convergence criterion met
 Total energy in the final basis set = -1510.30092113
   11   -1510.3009375823      7.33E-09 Convergence criterion met
 Total energy in the final basis set = -1510.30093758
   11   -1510.3009545573      8.97E-09 Convergence criterion met
 Total energy in the final basis set = -1510.30095456
   11   -1510.3009583283      2.83E-09 Convergence criterion met
 Total energy in the final basis set = -1510.30095833

             Standard Nuclear Orientation (Angstroms)
    I     Atom           X                Y                Z
 ----------------------------------------------------------------
    1      O       1.1435517843     2.3411337080    -0.2342889513
    2      C       1.6204505069     1.5467944642     0.6049037837
    3      C       3.0918166578     0.9844636810     0.6356792047
    4      C       3.2327330981    -0.5725846678     0.4027429856
    5      C       1.9091923372    -1.2753341067    -0.0439344986
    6      O       2.0627788926    -2.6760775074     0.2116438170
    7      C       0.9691267950    -3.4718097969    -0.3938018672
    8      C      -0.4337777885    -3.3150543237     0.3109253095
    9      O      -1.3316847882    -2.5246737951    -0.5612309519
   10      C      -1.7775877982    -1.3411793673     0.1106350191
   11      C      -2.5729375431    -0.4820471859    -0.9207009115
   12      C      -3.7246396618     0.3999517434    -0.2822816275
   13      C      -3.7991186698     0.2901004958     1.2843088886
   14      O      -3.4956422277     1.1617619666     2.1254853736
   15      O       0.9519982887     1.0642077152     1.7669240874
   16      O      -4.3505935745    -0.9940260092     1.6070213160
   17      O      -1.5461082248    -1.0860675742     1.3135817401
   18      C      -4.3298819441    -1.1934721668     3.0730157923
   19      C      -1.6455803778     0.6446280439    -1.5658051481
   20      C      -2.3466590577     1.1538945640    -2.8813281259
   21      C      -3.5370241356     1.9994177997    -2.2863724187
   22      C      -3.2817938269     1.8490266803    -0.7356046196
   23      O      -1.8031753397     1.7922396990    -0.6450315210
   24      H      -2.9635719191    -1.1595714321    -1.6997363492
   25      H      -4.7069605222     0.1169565308    -0.7013268784
   26      H      -0.5764486985     0.3576954685    -1.6381156592
   27      H      -1.6557800347     1.7855137148    -3.4622266057
   28      H      -2.6898826469     0.3230825635    -3.5181980291
   29      H      -3.4703793592     3.0568552852    -2.5874374335
   30      H      -4.5240812328     1.6082755432    -2.5810064917
   31      H      -3.6729846660     2.6647392732    -0.0975189900
   32      O       0.9103431303    -0.7603217908    -0.5915095587
   33      C      -0.4002725033     1.6679254556     1.8858981686
   34      C       3.9668296870     1.5549858423    -0.5574037603
   35      C       5.4877790928     1.4097406524    -0.1635449897
   36      C       5.6813535436    -0.1471685656    -0.2927729523
   37      C       4.2581481714    -0.5921909231    -0.8171746640
   38      O       3.8016239915     0.5508344281    -1.6362379153
   39      H       3.5295847814     1.2543218373     1.6134316778
   40      H       3.6342797253    -1.0992406202     1.2862525329
   41      H      -0.9560295958     1.0367144492     2.6019571554
   42      H       3.6464978822     2.5541915518    -0.9114218354
   43      H       6.1255212229     1.9543677224    -0.8779913260
   44      H       5.6939342205     1.7831453546     0.8520443015
   45      H       6.4603415307    -0.4010112105    -1.0290972398
   46      H       5.9321950763    -0.6265289100     0.6668619267
   47      H       4.2458035157    -1.5293484792    -1.4072557653
   48      H      -0.9404913355     1.6952135249     0.9052662614
   49      H      -0.3218658426     2.6978393104     2.2900670894
   50      H      -4.8200163840    -2.1670303872     3.2580928621
   51      H      -4.8803647505    -0.3912710648     3.6054051469
   52      H      -3.2884210075    -1.2223995612     3.4545535271
   53      H      -0.8920606491    -4.3155368749     0.4574421339
   54      H      -0.3410546124    -2.8028702882     1.2945707558
   55      H       1.3149750240    -4.5214972398    -0.3096871746
   56      H       0.8457042003    -3.2173127971    -1.4698452740
 ----------------------------------------------------------------

    9   -1510.3009572840      3.58E-09 Convergence criterion met
 Total energy in the final basis set = -1510.30095728
 Final energy is   -1510.30095728400
 **  OPTIMIZATION CONVERGED  **

                    Orbital Energies (a.u.)
 --------------------------------------------------------------

 Alpha MOs
 -- Occupied --
-18.938 -18.933 -18.924 -18.902 -18.898 -18.883 -18.883 -18.878
-18.868 -18.847 -10.106 -10.102 -10.093 -10.078 -10.076 -10.071
-10.059 -10.058 -10.057 -10.054 -10.050 -10.036 -10.035 -10.035
-10.024 -10.018 -10.018 -10.016 -10.015 -10.009  -1.020  -1.011
 -1.002  -0.983  -0.973  -0.966  -0.944  -0.937  -0.929  -0.909
 -0.763  -0.757  -0.726  -0.719  -0.711  -0.701  -0.694  -0.657
 -0.631  -0.618  -0.592  -0.576  -0.544  -0.539  -0.535  -0.531
 -0.511  -0.504  -0.481  -0.464  -0.459  -0.450  -0.448  -0.445
 -0.436  -0.429  -0.425  -0.412  -0.406  -0.400  -0.397  -0.390
 -0.378  -0.375  -0.374  -0.361  -0.354  -0.353  -0.349  -0.345
 -0.341  -0.334  -0.329  -0.328  -0.325  -0.321  -0.317  -0.307
 -0.306  -0.302  -0.297  -0.295  -0.295  -0.279  -0.271  -0.269
 -0.265  -0.257  -0.249  -0.246  -0.239  -0.230  -0.216  -0.189
 -0.172  -0.168  -0.160  -0.157  -0.154  -0.146  -0.141  -0.139
 -0.128

          Ground-State Mulliken Net Atomic Charges

     Atom                 Charge (a.u.)
  ----------------------------------------
      1 O                    -0.216522
      2 C                     0.210073
      3 C                    -0.081332
      4 C                    -0.077352
      5 C                     0.218664
      6 O                    -0.172645
      7 C                    -0.050416
      8 C                    -0.056735
      9 O                    -0.171854
     10 C                     0.222012
     11 C                    -0.079022
     12 C                    -0.080702
     13 C                     0.214576
     14 O                    -0.212200
     15 O                    -0.180820
     16 O                    -0.175579
     17 O                    -0.213539
     18 C                    -0.128937
     19 C                     0.024022
     20 C                    -0.142594
     21 C                    -0.143493
     22 C                     0.026900
     23 O                    -0.178439
     24 H                     0.087454
     25 H                     0.084919
     26 H                     0.110454
     27 H                     0.082442
     28 H                     0.073666
     29 H                     0.079909
     30 H                     0.072920
     31 H                     0.090548
     32 O                    -0.213203
     33 C                    -0.151106
     34 C                     0.024017
     35 C                    -0.143609
     36 C                    -0.144076
     37 C                     0.024926
     38 O                    -0.190727
     39 H                     0.082293
     40 H                     0.087413
     41 H                     0.085847
     42 H                     0.090638
     43 H                     0.077097
     44 H                     0.073414
     45 H                     0.077118
     46 H                     0.073495
     47 H                     0.080396
     48 H                     0.118385
     49 H                     0.068766
     50 H                     0.087004
     51 H                     0.088201
     52 H                     0.092282
     53 H                     0.085210
     54 H                     0.105687
     55 H                     0.090319
     56 H                     0.093835
  ----------------------------------------
  Sum of atomic charges =     0.000000

                    Cartesian Multipole Moments
 -----------------------------------------------------------------
    Charge (ESU x 10^10)
                -0.0000
    Dipole Moment (Debye)
         X      -0.1370      Y      -3.0982      Z      -0.3372
       Tot       3.1195
    Quadrupole Moments (Debye-Ang)
        XX    -141.5002     XY      -0.5503     YY    -154.5683
        XZ       6.1157     YZ      -1.2834     ZZ    -159.0499

 Total job time:  118.97s(wall), 5676.61s(cpu)
        *  Thank you very much for using Q-Chem.  Have a nice day.  *
