 Q-Chem 5.0, Q-Chem, Inc., Pleasanton, CA (2017)
 Q-Chem 5.0.1 for Intel X86 EM64T Linux

User input:
--------------------------------------------------------------
$molecule
0  1
O -1.7527682466 1.2490861972 2.3299889367
C -1.9968210911 1.3242067517 1.1058763057
C -3.3767620112 1.0136619551 0.4113580333
C -3.4357554141 -0.3820886229 -0.3321568209
C -2.0721608818 -1.1430967814 -0.398230304
O -2.2146605719 -2.1823125924 -1.3791282579
C -0.9542326817 -2.9400164642 -1.5305959174
C 0.1996876338 -2.1546817821 -2.2726759249
O 1.4181354967 -2.1277314249 -1.4304795339
C 1.8651344006 -0.7828080293 -1.234128437
C 3.1501728428 -0.8260862046 -0.3418528092
C 3.7671779778 0.606258955 -0.0861061256
C 3.2486008835 1.7160250182 -1.0733649008
O 2.6355140688 2.7729153285 -0.8079242937
O -1.0965860848 1.831486548 0.1240849781
O 3.7283447888 1.3749966118 -2.3809284024
O 1.2925700262 0.2310610383 -1.6939912492
C 3.1938397625 2.3320067313 -3.3751350034
C 2.7062696169 -1.2115555937 1.1377799219
C 3.9900934973 -1.4385709299 2.0286975193
C 4.443934701 0.044136315 2.3074918222
C 3.4002384689 0.8437236598 1.437053405
O 2.1526500108 0.0678182286 1.6410422698
H 3.8762386494 -1.5412590605 -0.7668452928
H 4.8643708698 0.560007947 -0.212021946
H 1.9409926813 -2.0108254891 1.1843865322
H 3.7251265665 -1.9638628427 2.9597908168
H 4.7578048651 -2.0245508943 1.4983440043
H 4.3325901089 0.3040713242 3.3723176566
H 5.4840220695 0.2379019624 2.0004445506
H 3.2439652916 1.9050589163 1.710548729
O -1.0302076866 -0.9496077266 0.2649894142
C 0.2111058232 2.1149059265 0.7609995384
C -4.4955527908 0.8033936997 1.5131556968
C -5.9143366005 0.8217093801 0.8201025678
C -5.945273006 -0.5992367213 0.1443744174
C -4.5216907382 -1.1530770405 0.5453076973
O -4.3145022739 -0.6158515602 1.9062210119
H -3.6163947151 1.8367897852 -0.2850547644
H -3.7976131493 -0.2669139891 -1.3694830665
H 0.7091593073 1.1811322029 1.1134297295
H -4.3856407994 1.459502104 2.39790282
H -6.7121398939 0.9287777074 1.5720853523
H -6.0067113362 1.6406488364 0.0889042378
H -6.7369592821 -1.2338377142 0.5737045928
H -6.0827137312 -0.5520937671 -0.9477742987
H -4.4224320113 -2.2560563003 0.5361499517
H 0.0919296687 2.805476327 1.619320714
H 0.8572273615 2.5815279605 -0.00833195
H 3.6165265116 2.029172262 -4.3507889765
H 3.4948620397 3.3745783555 -3.1459059391
H 2.0862831182 2.2837573747 -3.4179553872
H 0.4544628251 -2.6629917525 -3.2260398895
H -0.1036909695 -1.1060298573 -2.4887857306
H -1.2340238108 -3.8406913122 -2.1118854024
H -0.5661721456 -3.2598790219 -0.5377638976
$end

$rem
JOBTYPE                   OPT
METHOD                    B3LYP
DFT_D                     d3_op
BASIS                     STO-3G
GEOM_OPT_MAX_CYCLES       100
GEOM_OPT_TOL_GRADIENT     300
GEOM_OPT_TOL_DISPLACEMENT 1200
GEOM_OPT_TOL_ENERGY       100
SYMMETRY                  False
THRESH                    12
SCF_CONVERGENCE           8
MAX_SUB_FILE_NUM          128
MEM_STATIC                400
MEM_TOTAL                 4000
$end
--------------------------------------------------------------

   16   -1510.2956232157      4.96E-09 Convergence criterion met
 Total energy in the final basis set = -1510.29562322
   14   -1510.2866408733      6.66E-09 Convergence criterion met
 Total energy in the final basis set = -1510.28664087
   14   -1510.2829837775      3.46E-09 Convergence criterion met
 Total energy in the final basis set = -1510.28298378
   14   -1510.2884581244      2.69E-09 Convergence criterion met
 Total energy in the final basis set = -1510.28845812
   14   -1510.2914531254      7.55E-09 Convergence criterion met
 Total energy in the final basis set = -1510.29145313
   14   -1510.2940988044      2.68E-09 Convergence criterion met
 Total energy in the final basis set = -1510.29409880
   14   -1510.2954519257      1.83E-09 Convergence criterion met
 Total energy in the final basis set = -1510.29545193
   14   -1510.2864567728      3.09E-09 Convergence criterion met
   11   -1510.3010980882      8.51E-09 Convergence criterion met
 Total energy in the final basis set = -1510.30109809
   11   -1510.3010971520      9.13E-09 Convergence criterion met
 Total energy in the final basis set = -1510.30109715
   11   -1510.3011284660      8.33E-09 Convergence criterion met
 Total energy in the final basis set = -1510.30112847
   11   -1510.3011361743      5.93E-09 Convergence criterion met
 Total energy in the final basis set = -1510.30113617
   11   -1510.3011486145      6.57E-09 Convergence criterion met
 Total energy in the final basis set = -1510.30114861
    9   -1510.3011373316      9.52E-09 Convergence criterion met
 Total energy in the final basis set = -1510.30113733

             Standard Nuclear Orientation (Angstroms)
    I     Atom           X                Y                Z
 ----------------------------------------------------------------
    1      O       1.1403134441     2.2601469589    -0.4710173448
    2      C       1.6340152901     1.5472805734     0.4294786626
    3      C       3.1044785385     0.9850170645     0.4786482317
    4      C       3.2416418587    -0.5863235469     0.3661401540
    5      C       1.9055527341    -1.3265802584     0.0353321797
    6      O       2.0419053932    -2.6806733627     0.4813326404
    7      C       0.9365572015    -3.5382136389    -0.0083326684
    8      C      -0.4622823977    -3.2796135606     0.6731409563
    9      O      -1.3458338133    -2.5659113208    -0.2765764067
   10      C      -1.7914821788    -1.3245981557     0.2814037361
   11      C      -2.5713911465    -0.5585204179    -0.8318093458
   12      C      -3.7104311794     0.4005369051    -0.2892263497
   13      C      -3.7826690438     0.4600220398     1.2804770907
   14      O      -3.4551597440     1.4080621043     2.0243259521
   15      O       0.9874137406     1.1774229514     1.6436718925
   16      O      -4.3679565279    -0.7670607506     1.7375740911
   17      O      -1.5662979189    -0.9628961032     1.4578637784
   18      C      -4.3482259973    -0.8103294463     3.2165369362
   19      C      -1.6233071281     0.4824008266    -1.5829595776
   20      C      -2.3069758849     0.8619138862    -2.9497753249
   21      C      -3.4957410066     1.7708530730    -2.4545850047
   22      C      -3.2494046140     1.7865244839    -0.8953201850
   23      O      -1.7716425064     1.7226599839    -0.7889393519
   24      H      -2.9706085553    -1.3041747502    -1.5413614953
   25      H      -4.6977304421     0.0860873773    -0.6731044184
   26      H      -0.5580449049     0.1729948131    -1.6146466567
   27      H      -1.6052003334     1.4275412211    -3.5832263240
   28      H      -2.6509024177    -0.0252301013    -3.5051304051
   29      H      -3.4238906249     2.7899134121    -2.8661117839
   30      H      -4.4830987899     1.3539150482    -2.7099836632
   31      H      -3.6341527819     2.6716132861    -0.3528624648
   32      O       0.9064086844    -0.8782915933    -0.5672832152
   33      C      -0.3580530231     1.8015794925     1.7349326375
   34      C       3.9486857519     1.4599513884    -0.7760532713
   35      C       5.4792663907     1.3348438504    -0.4156755047
   36      C       5.6654254879    -0.2280650345    -0.4435384183
   37      C       4.2238513064    -0.7022390030    -0.8852727367
   38      O       3.7459155011     0.3796028386    -1.7717860888
   39      H       3.5632710642     1.3311701136     1.4221143106
   40      H       3.6803167045    -1.0371306213     1.2735412783
   41      H      -0.9116667927     1.7597449673     0.7619238596
   42      H       3.6218874602     2.4318299268    -1.1940214444
   43      H       6.0986466239     1.8269581171    -1.1823546229
   44      H       5.7137624098     1.7754449446     0.5663194871
   45      H       6.4163979069    -0.5349517860    -1.1889540627
   46      H       5.9517978667    -0.6410804163     0.5368831078
   47      H       4.1896419285    -1.6800491623    -1.4045014950
   48      H      -0.2640364159     2.8581954373     2.0586829917
   49      H      -0.9088318887     1.2320328625     2.5044270819
   50      H      -4.8696230025    -1.7417087798     3.5044360475
   51      H      -4.8692779321     0.0621052098     3.6608288524
   52      H      -3.3066803823    -0.8334741567     3.5982627997
   53      H      -0.9389337200    -4.2515657271     0.9202099800
   54      H      -0.3615030127    -2.6733202057     1.6011170824
   55      H       1.2728006010    -4.5705189556     0.2153121976
   56      H       0.8112099123    -3.4291294847    -1.1083968028
 ----------------------------------------------------------------

    9   -1510.3011370997      2.32E-09 Convergence criterion met
 Total energy in the final basis set = -1510.30113710
 Final energy is   -1510.30113709973
 **  OPTIMIZATION CONVERGED  **

                    Orbital Energies (a.u.)
 --------------------------------------------------------------

 Alpha MOs
 -- Occupied --
-18.939 -18.933 -18.924 -18.903 -18.898 -18.883 -18.883 -18.878
-18.867 -18.848 -10.106 -10.102 -10.093 -10.079 -10.076 -10.071
-10.059 -10.058 -10.057 -10.052 -10.051 -10.036 -10.036 -10.034
-10.025 -10.018 -10.018 -10.016 -10.015 -10.009  -1.020  -1.011
 -1.001  -0.983  -0.972  -0.966  -0.944  -0.938  -0.928  -0.909
 -0.762  -0.758  -0.726  -0.719  -0.711  -0.701  -0.694  -0.656
 -0.632  -0.618  -0.592  -0.577  -0.544  -0.539  -0.534  -0.531
 -0.512  -0.504  -0.481  -0.464  -0.459  -0.449  -0.448  -0.444
 -0.436  -0.428  -0.425  -0.412  -0.406  -0.401  -0.397  -0.390
 -0.378  -0.375  -0.374  -0.361  -0.354  -0.352  -0.349  -0.345
 -0.341  -0.334  -0.329  -0.328  -0.325  -0.321  -0.318  -0.307
 -0.305  -0.302  -0.297  -0.295  -0.295  -0.279  -0.271  -0.269
 -0.265  -0.257  -0.249  -0.246  -0.239  -0.230  -0.216  -0.190
 -0.172  -0.168  -0.160  -0.157  -0.154  -0.145  -0.141  -0.139
 -0.129

          Ground-State Mulliken Net Atomic Charges

     Atom                 Charge (a.u.)
  ----------------------------------------
      1 O                    -0.215688
      2 C                     0.209371
      3 C                    -0.081129
      4 C                    -0.077716
      5 C                     0.218541
      6 O                    -0.172152
      7 C                    -0.050322
      8 C                    -0.056658
      9 O                    -0.171464
     10 C                     0.221584
     11 C                    -0.079161
     12 C                    -0.080754
     13 C                     0.214480
     14 O                    -0.212351
     15 O                    -0.180871
     16 O                    -0.175535
     17 O                    -0.213850
     18 C                    -0.128964
     19 C                     0.022780
     20 C                    -0.142555
     21 C                    -0.143585
     22 C                     0.026855
     23 O                    -0.178404
     24 H                     0.087420
     25 H                     0.084831
     26 H                     0.112086
     27 H                     0.082563
     28 H                     0.073574
     29 H                     0.079767
     30 H                     0.072797
     31 H                     0.090186
     32 O                    -0.213666
     33 C                    -0.151683
     34 C                     0.024103
     35 C                    -0.143748
     36 C                    -0.143922
     37 C                     0.025179
     38 O                    -0.190094
     39 H                     0.082443
     40 H                     0.087412
     41 H                     0.118821
     42 H                     0.090799
     43 H                     0.077187
     44 H                     0.073441
     45 H                     0.077167
     46 H                     0.073507
     47 H                     0.080138
     48 H                     0.068902
     49 H                     0.086056
     50 H                     0.086933
     51 H                     0.088245
     52 H                     0.092134
     53 H                     0.085036
     54 H                     0.105746
     55 H                     0.090373
     56 H                     0.093816
  ----------------------------------------
  Sum of atomic charges =     0.000000

                    Cartesian Multipole Moments
 -----------------------------------------------------------------
    Charge (ESU x 10^10)
                -0.0000
    Dipole Moment (Debye)
         X      -0.0640      Y      -3.1191      Z      -0.0325
       Tot       3.1200
    Quadrupole Moments (Debye-Ang)
        XX    -141.2523     XY      -0.0798     YY    -154.6133
        XZ       5.5842     YZ      -1.7093     ZZ    -159.0994

 Total job time:  116.28s(wall), 5546.49s(cpu)
        *  Thank you very much for using Q-Chem.  Have a nice day.  *
