 Q-Chem 5.0, Q-Chem, Inc., Pleasanton, CA (2017)
 Q-Chem 5.0.1 for Intel X86 EM64T Linux

User input:
--------------------------------------------------------------
$molecule
0  1
O -3.94934 -3.66094 2.70899
C -3.26408 -4.56952 2.26188
C -3.36658 -6.02376 2.66595
C -2.28432 -6.56788 3.61278
C -1.32234 -5.55385 4.19107
O -0.24354 -6.19351 4.73187
C 0.72915 -5.29527 5.27617
C 1.47039 -4.57907 4.152
O 1.37714 -3.15722 4.33238
C 0.88638 -2.46609 3.27378
C 0.81455 -0.97859 3.52448
C 0.30179 -0.14652 2.33999
C -0.38767 -0.92311 1.23624
O -1.54365 -0.76264 0.8722
O -2.73262 -4.40103 1.02309
O 0.4751 -1.51511 0.36182
O 0.55317 -3.04197 2.25133
C 0.11671 -2.1855 -0.78665
C -0.18801 -0.5829 4.62376
C 0.21609 0.76482 5.21631
C -0.10192 1.68811 4.05757
C -0.75619 0.69607 3.08679
O -1.36397 -0.25626 3.92621
H 1.84085 -0.66138 3.81915
H 1.08885 0.48483 1.8711
H -0.29071 -1.34483 5.42709
H -0.49535 0.97706 6.04662
H 1.25634 0.82938 5.60177
H -0.83562 2.44787 4.40742
H 0.7754 2.18824 3.59304
H -1.43524 1.23867 2.39282
O -1.45673 -4.33638 4.15873
C -3.22462 -3.48718 0.11206
C -4.6167 -6.2946 3.53739
C -4.99878 -7.77357 3.46913
C -3.88886 -8.39079 4.2928
C -3.14928 -7.12987 4.74887
O -4.16262 -6.16163 4.86267
H -3.4697 -6.62673 1.73448
H -1.67074 -7.33473 3.08756
H -3.18753 -2.46252 0.52185
H -5.49315 -5.67066 3.25534
H -5.9567 -7.89163 4.02493
H -5.11786 -8.18621 2.44429
H -4.34465 -8.90973 5.16529
H -3.21959 -9.0875 3.74292
H -2.56172 -7.33547 5.67093
H -4.28168 -3.73205 -0.12691
H -2.64572 -3.54508 -0.8297
H 1.03541 -2.51352 -1.31447
H -0.46597 -1.52122 -1.45986
H -0.46718 -3.08744 -0.52433
H 2.54937 -4.82883 4.24935
H 1.19538 -4.99952 3.15926
H 1.46676 -5.92215 5.82257
H 0.29438 -4.60323 6.03352
$end

$opt
CONSTRAINT
tors           1           2           3           4    -103.378
tors           3           4           5           6    -165.247
tors           4           5           6           7    +178.747
tors           5           6           7           8     -72.225
tors           6           7           8           9    +125.092
tors           7           8           9          10    -125.449
tors           8           9          10          11    -179.937
tors           9          10          11          12    +178.359
tors          11          12          13          14    +119.740
ENDCONSTRAINT
$end

$rem
JOBTYPE                   OPT
METHOD                    B3LYP
DFT_D                     d3_op
BASIS                     STO-3G
GEOM_OPT_MAX_CYCLES       100
GEOM_OPT_TOL_GRADIENT     300
GEOM_OPT_TOL_DISPLACEMENT 1200
GEOM_OPT_TOL_ENERGY       100
SYMMETRY                  False
THRESH                    12
SCF_CONVERGENCE           8
MAX_SUB_FILE_NUM          128
MEM_STATIC                400
MEM_TOTAL                 4000
$end
--------------------------------------------------------------

   15   -1510.1385514476      6.45E-09 Convergence criterion met
 Total energy in the final basis set = -1510.13855145
   14   -1510.2097350920      2.66E-09 Convergence criterion met
 Total energy in the final basis set = -1510.20973509
   14   -1510.2477382015      6.62E-09 Convergence criterion met
 Total energy in the final basis set = -1510.24773820
   15   -1510.1983405694      7.24E-09 Convergence criterion met
 Total energy in the final basis set = -1510.19834057
   14   -1510.2710506633      8.90E-09 Convergence criterion met
 Total energy in the final basis set = -1510.27105066
   13   -1510.2775308522      4.14E-09 Convergence criterion met
 Total energy in the final basis set = -1510.27753085
   13   -1510.2818009627      3.45E-09 Convergence criterion met
 Total energy in the final basis set = -1510.28180096
   13   -1510.2846011429      3.18E-09 Convergence criterion met
    9   -1510.2956054661      7.38E-09 Convergence criterion met
 Total energy in the final basis set = -1510.29560547
    9   -1510.2956079961      3.68E-09 Convergence criterion met
 Total energy in the final basis set = -1510.29560800
    9   -1510.2956104664      4.27E-09 Convergence criterion met
 Total energy in the final basis set = -1510.29561047
    9   -1510.2956123824      3.38E-09 Convergence criterion met
 Total energy in the final basis set = -1510.29561238
    9   -1510.2956130471      2.52E-09 Convergence criterion met
 Total energy in the final basis set = -1510.29561305
    9   -1510.2956131961      1.38E-09 Convergence criterion met
 Total energy in the final basis set = -1510.29561320

             Standard Nuclear Orientation (Angstroms)
    I     Atom           X                Y                Z
 ----------------------------------------------------------------
    1      O      -1.7527682466     1.2490861972     2.3299889367
    2      C      -1.9968210911     1.3242067517     1.1058763057
    3      C      -3.3767620112     1.0136619551     0.4113580333
    4      C      -3.4357554141    -0.3820886229    -0.3321568209
    5      C      -2.0721608818    -1.1430967814    -0.3982303040
    6      O      -2.2146605719    -2.1823125924    -1.3791282579
    7      C      -0.9542326817    -2.9400164642    -1.5305959174
    8      C       0.1996876338    -2.1546817821    -2.2726759249
    9      O       1.4181354967    -2.1277314249    -1.4304795339
   10      C       1.8651344006    -0.7828080293    -1.2341284370
   11      C       3.1501728428    -0.8260862046    -0.3418528092
   12      C       3.7671779778     0.6062589550    -0.0861061256
   13      C       3.2486008835     1.7160250182    -1.0733649008
   14      O       2.6355140688     2.7729153285    -0.8079242937
   15      O      -1.0965860848     1.8314865480     0.1240849781
   16      O       3.7283447888     1.3749966118    -2.3809284024
   17      O       1.2925700262     0.2310610383    -1.6939912492
   18      C       3.1938397625     2.3320067313    -3.3751350034
   19      C       2.7062696169    -1.2115555937     1.1377799219
   20      C       3.9900934973    -1.4385709299     2.0286975193
   21      C       4.4439347010     0.0441363150     2.3074918222
   22      C       3.4002384689     0.8437236598     1.4370534050
   23      O       2.1526500108     0.0678182286     1.6410422698
   24      H       3.8762386494    -1.5412590605    -0.7668452928
   25      H       4.8643708698     0.5600079470    -0.2120219460
   26      H       1.9409926813    -2.0108254891     1.1843865322
   27      H       3.7251265665    -1.9638628427     2.9597908168
   28      H       4.7578048651    -2.0245508943     1.4983440043
   29      H       4.3325901089     0.3040713242     3.3723176566
   30      H       5.4840220695     0.2379019624     2.0004445506
   31      H       3.2439652916     1.9050589163     1.7105487290
   32      O      -1.0302076866    -0.9496077266     0.2649894142
   33      C       0.2111058232     2.1149059265     0.7609995384
   34      C      -4.4955527908     0.8033936997     1.5131556968
   35      C      -5.9143366005     0.8217093801     0.8201025678
   36      C      -5.9452730060    -0.5992367213     0.1443744174
   37      C      -4.5216907382    -1.1530770405     0.5453076973
   38      O      -4.3145022739    -0.6158515602     1.9062210119
   39      H      -3.6163947151     1.8367897852    -0.2850547644
   40      H      -3.7976131493    -0.2669139891    -1.3694830665
   41      H       0.7091593073     1.1811322029     1.1134297295
   42      H      -4.3856407994     1.4595021040     2.3979028200
   43      H      -6.7121398939     0.9287777074     1.5720853523
   44      H      -6.0067113362     1.6406488364     0.0889042378
   45      H      -6.7369592821    -1.2338377142     0.5737045928
   46      H      -6.0827137312    -0.5520937671    -0.9477742987
   47      H      -4.4224320113    -2.2560563003     0.5361499517
   48      H       0.0919296687     2.8054763270     1.6193207140
   49      H       0.8572273615     2.5815279605    -0.0083319500
   50      H       3.6165265116     2.0291722620    -4.3507889765
   51      H       3.4948620397     3.3745783555    -3.1459059391
   52      H       2.0862831182     2.2837573747    -3.4179553872
   53      H       0.4544628251    -2.6629917525    -3.2260398895
   54      H      -0.1036909695    -1.1060298573    -2.4887857306
   55      H      -1.2340238108    -3.8406913122    -2.1118854024
   56      H      -0.5661721456    -3.2598790219    -0.5377638976
 ----------------------------------------------------------------

    8   -1510.2956130886      3.08E-09 Convergence criterion met
 Total energy in the final basis set = -1510.29561309
 Final energy is   -1510.29561308858
 **  OPTIMIZATION CONVERGED  **

                    Orbital Energies (a.u.)
 --------------------------------------------------------------

 Alpha MOs
 -- Occupied --
-18.941 -18.935 -18.927 -18.899 -18.899 -18.890 -18.881 -18.880
-18.872 -18.840 -10.109 -10.100 -10.100 -10.077 -10.073 -10.071
-10.065 -10.062 -10.059 -10.055 -10.048 -10.045 -10.039 -10.032
-10.024 -10.022 -10.022 -10.015 -10.013 -10.005  -1.022  -1.013
 -1.005  -0.979  -0.976  -0.962  -0.946  -0.938  -0.932  -0.903
 -0.768  -0.755  -0.730  -0.720  -0.712  -0.703  -0.692  -0.659
 -0.629  -0.619  -0.594  -0.576  -0.549  -0.541  -0.537  -0.528
 -0.514  -0.504  -0.483  -0.467  -0.460  -0.457  -0.446  -0.444
 -0.434  -0.434  -0.425  -0.412  -0.408  -0.402  -0.397  -0.389
 -0.381  -0.374  -0.371  -0.365  -0.355  -0.353  -0.350  -0.346
 -0.339  -0.335  -0.329  -0.327  -0.325  -0.320  -0.315  -0.314
 -0.308  -0.306  -0.303  -0.295  -0.291  -0.280  -0.275  -0.269
 -0.262  -0.256  -0.252  -0.248  -0.239  -0.227  -0.219  -0.190
 -0.174  -0.171  -0.166  -0.155  -0.154  -0.150  -0.138  -0.136
 -0.122

          Ground-State Mulliken Net Atomic Charges

     Atom                 Charge (a.u.)
  ----------------------------------------
      1 O                    -0.219699
      2 C                     0.211567
      3 C                    -0.081194
      4 C                    -0.078990
      5 C                     0.212227
      6 O                    -0.174528
      7 C                    -0.050797
      8 C                    -0.056760
      9 O                    -0.172352
     10 C                     0.222293
     11 C                    -0.076175
     12 C                    -0.081007
     13 C                     0.221593
     14 O                    -0.215225
     15 O                    -0.177833
     16 O                    -0.175134
     17 O                    -0.203744
     18 C                    -0.128583
     19 C                     0.028106
     20 C                    -0.144132
     21 C                    -0.142174
     22 C                     0.025226
     23 O                    -0.182106
     24 H                     0.089605
     25 H                     0.085272
     26 H                     0.092375
     27 H                     0.081008
     28 H                     0.074214
     29 H                     0.080869
     30 H                     0.074033
     31 H                     0.092876
     32 O                    -0.203510
     33 C                    -0.154736
     34 C                     0.025490
     35 C                    -0.145015
     36 C                    -0.143044
     37 C                     0.025519
     38 O                    -0.187597
     39 H                     0.082213
     40 H                     0.084763
     41 H                     0.103479
     42 H                     0.088682
     43 H                     0.076791
     44 H                     0.072724
     45 H                     0.076790
     46 H                     0.072585
     47 H                     0.081909
     48 H                     0.071932
     49 H                     0.096551
     50 H                     0.087339
     51 H                     0.088404
     52 H                     0.093820
     53 H                     0.084590
     54 H                     0.105524
     55 H                     0.089450
     56 H                     0.094515
  ----------------------------------------
  Sum of atomic charges =     0.000000

                    Cartesian Multipole Moments
 -----------------------------------------------------------------
    Charge (ESU x 10^10)
                -0.0000
    Dipole Moment (Debye)
         X       1.7376      Y      -2.0924      Z      -3.1782
       Tot       4.1831
    Quadrupole Moments (Debye-Ang)
        XX    -138.5210     XY      -2.5348     YY    -155.7211
        XZ       7.3528     YZ       1.0090     ZZ    -160.4851

 Total job time:  84.63s(wall), 4033.27s(cpu)
        *  Thank you very much for using Q-Chem.  Have a nice day.  *
