 Q-Chem 5.0, Q-Chem, Inc., Pleasanton, CA (2017)
 Q-Chem 5.0.1 for Intel X86 EM64T Linux

User input:
--------------------------------------------------------------
$molecule
0  1
O -1.6632410109 1.0916671905 2.2886337649
C -1.9406217786 1.2812895803 1.0846203337
C -3.3442057268 1.0589870886 0.3987291371
C -3.471423754 -0.2798008311 -0.4362852244
C -2.1460400142 -1.1014943196 -0.5117270782
O -2.2827462267 -2.0799345631 -1.554831398
C -1.0299647905 -2.8607334955 -1.6762964058
C 0.150880109 -2.0273382878 -2.3107902085
O 1.3277915951 -2.113003135 -1.4129605825
C 1.8940393704 -0.8159037095 -1.2145458345
C 3.1302878398 -0.9549764967 -0.2671956568
C 3.8369608466 0.4323196752 0.0047285349
C 3.4033950765 1.5831173143 -0.9781906826
O 2.8680828133 2.6766033573 -0.6942535555
O -1.0555095929 1.8455764458 0.1176835141
O 3.9000205176 1.2418760663 -2.280717783
O 1.4242782255 0.2422461419 -1.6927158502
C 3.4612931613 2.2564688804 -3.2639990094
C 2.6036061797 -1.3019195597 1.1941778006
C 3.8347204066 -1.626335873 2.128534869
C 4.3952344209 -0.1828370501 2.4190366326
C 3.4448989004 0.6942590331 1.5174824884
O 2.1351867792 0.0166809695 1.680054756
H 3.819310071 -1.7227438342 -0.6614137684
H 4.9314077382 0.317245693 -0.0975608722
H 1.776427412 -2.0382987694 1.2123777888
H 3.4972999661 -2.1248289737 3.0509308107
H 4.5709095141 -2.2736598468 1.625440326
H 4.274180074 0.0883887584 3.4799474265
H 5.4558492095 -0.0732217173 2.1421817697
H 3.3606537791 1.7646859281 1.7876298758
O -1.1188459192 -0.9782056801 0.1910990611
C 0.2691481001 2.0901932562 0.7366683906
C -4.4574546381 0.8221135582 1.5013500846
C -5.8810844518 0.9749398876 0.834350916
C -5.9925310113 -0.3783039923 0.0377789152
C -4.6040097109 -1.0460802612 0.3830951439
O -4.356329733 -0.631204222 1.7794483426
H -3.5641179637 1.9342729273 -0.2381927731
H -3.8062345551 -0.0839346952 -1.4706307053
H 0.7555976519 1.1477644317 1.0849111
H -4.2989586217 1.3987653483 2.4330318508
H -6.6639050545 1.0549257336 1.605333084
H -5.9391407332 1.8589794101 0.1794180782
H -6.8199658692 -1.0016848756 0.4125080448
H -6.1250840732 -0.228526453 -1.0457311792
H -4.5727433833 -2.1490011456 0.2870232149
H 0.1807375149 2.7850030746 1.5957597706
H 0.9114414112 2.5462231614 -0.0413217721
H 3.9108547538 1.9629652117 -4.2304695115
H 3.8047695738 3.2739418708 -2.9865562826
H 2.3557964363 2.2688653254 -3.3568749161
H 0.4331949648 -2.4436592127 -3.3009238355
H -0.1261636875 -0.9576740735 -2.4372404554
H -1.2892536416 -3.7233658848 -2.321031652
H -0.6957327091 -3.2343425889 -0.6833860059
$end

$rem
JOBTYPE                   OPT
METHOD                    B3LYP
DFT_D                     d3_op
BASIS                     STO-3G
GEOM_OPT_MAX_CYCLES       100
GEOM_OPT_TOL_GRADIENT     300
GEOM_OPT_TOL_DISPLACEMENT 1200
GEOM_OPT_TOL_ENERGY       100
SYMMETRY                  False
THRESH                    12
SCF_CONVERGENCE           8
MAX_SUB_FILE_NUM          128
MEM_STATIC                400
MEM_TOTAL                 4000
$end
--------------------------------------------------------------

   16   -1510.2961419656      6.10E-09 Convergence criterion met
 Total energy in the final basis set = -1510.29614197
   14   -1510.2863975356      4.80E-09 Convergence criterion met
 Total energy in the final basis set = -1510.28639754
   14   -1510.2868612743      3.87E-09 Convergence criterion met
 Total energy in the final basis set = -1510.28686127
   14   -1510.2938385504      3.94E-09 Convergence criterion met
 Total energy in the final basis set = -1510.29383855
   14   -1510.2789632867      4.96E-09 Convergence criterion met
 Total energy in the final basis set = -1510.27896329
   14   -1510.2949298772      3.56E-09 Convergence criterion met
 Total energy in the final basis set = -1510.29492988
   13   -1510.2954023416      4.37E-09 Convergence criterion met
 Total energy in the final basis set = -1510.29540234
   13   -1510.2965904628      6.25E-09 Convergence criterion met
   12   -1510.3009214015      4.80E-09 Convergence criterion met
 Total energy in the final basis set = -1510.30092140
   11   -1510.3009371646      7.84E-09 Convergence criterion met
 Total energy in the final basis set = -1510.30093716
   10   -1510.3009347609      8.80E-09 Convergence criterion met
 Total energy in the final basis set = -1510.30093476
   10   -1510.3009404451      5.02E-09 Convergence criterion met
 Total energy in the final basis set = -1510.30094045
    9   -1510.3009416991      5.34E-09 Convergence criterion met
 Total energy in the final basis set = -1510.30094170
    9   -1510.3009426449      4.26E-09 Convergence criterion met
 Total energy in the final basis set = -1510.30094264

             Standard Nuclear Orientation (Angstroms)
    I     Atom           X                Y                Z
 ----------------------------------------------------------------
    1      O       1.1571396129     2.3355860160    -0.2287795500
    2      C       1.6311163090     1.5343453353     0.6055043163
    3      C       3.1005102490     0.9667141402     0.6332119559
    4      C       3.2360082177    -0.5894861260     0.3920652873
    5      C       1.9109417305    -1.2839867258    -0.0630759664
    6      O       2.0598538889    -2.6873846042     0.1804503162
    7      C       0.9644798560    -3.4742993276    -0.4332928157
    8      C      -0.4384708732    -3.3197515503     0.2718833679
    9      O      -1.3339216249    -2.5195342608    -0.5937471423
   10      C      -1.7723247747    -1.3379874435     0.0864774842
   11      C      -2.5659535059    -0.4683523881    -0.9374122341
   12      C      -3.7162520842     0.4095232807    -0.2908834827
   13      C      -3.7901756539     0.2857809806     1.2746881829
   14      O      -3.4861732256     1.1499492264     2.1233772635
   15      O       0.9609700582     1.0469849984     1.7645627282
   16      O      -4.3417492687    -1.0010245124     1.5863016709
   17      O      -1.5373100012    -1.0917549216     1.2905970708
   18      C      -4.3205421269    -1.2132570843     3.0505021940
   19      C      -1.6370645765     0.6628136374    -1.5723703863
   20      C      -2.3379118579     1.1851516437    -2.8829738214
   21      C      -3.5264625812     2.0275962214    -2.2799421404
   22      C      -3.2713371388     1.8620290960    -0.7307708152
   23      O      -1.7928244925     1.8020903178    -0.6410966586
   24      H      -2.9576974168    -1.1383410918    -1.7223491674
   25      H      -4.6991219240     0.1317969366    -0.7121496457
   26      H      -0.5683393911     0.3751825339    -1.6477216749
   27      H      -1.6461390223     1.8205429189    -3.4586640461
   28      H      -2.6829743160     0.3605817068    -3.5268913380
   29      H      -3.4575233221     3.0876789112    -2.5710464070
   30      H      -4.5144281303     1.6415144030    -2.5782430261
   31      H      -3.6610837245     2.6722155055    -0.0847988781
   32      O       0.9146303203    -0.7610851169    -0.6078199866
   33      C      -0.3888536369     1.6553293325     1.8876422202
   34      C       3.9782706749     1.5405462565    -0.5563447463
   35      C       5.4983010957     1.3898654806    -0.1611127090
   36      C       5.6876945661    -0.1671376655    -0.2956394350
   37      C       4.2645007319    -0.6061914439    -0.8251529586
   38      O       3.8124596582     0.5416934730    -1.6400022247
   39      H       3.5389349453     1.2297255857     1.6125346763
   40      H       3.6325433281    -1.1229339717     1.2737439596
   41      H      -0.9294849756     1.6901079848     0.9074825744
   42      H       3.6607263858     2.5420972885    -0.9062313786
   43      H       6.1383870388     1.9352114573    -0.8729224739
   44      H       5.7042659342     1.7591606696     0.8560171450
   45      H       6.4677598748    -0.4205361097    -1.0309647699
   46      H       5.9348252046    -0.6506890548     0.6628688273
   47      H       4.2510824705    -1.5406471902    -1.4194703606
   48      H      -0.3060911887     2.6827011679     2.2973915606
   49      H      -0.9467552494     1.0224672279     2.6005843773
   50      H      -4.8118315404    -2.1877464580     3.2274037533
   51      H      -4.8696574363    -0.4149523680     3.5900882037
   52      H      -3.2789139162    -1.2468457810     3.4312388880
   53      H      -0.8996638902    -4.3201436531     0.4094703511
   54      H      -0.3447002342    -2.8161296494     1.2598416885
   55      H       1.3071925858    -4.5257218856    -0.3585398045
   56      H       0.8427278869    -3.2095224192    -1.5070407064
 ----------------------------------------------------------------

    9   -1510.3009428346      3.79E-09 Convergence criterion met
 Total energy in the final basis set = -1510.30094283
 Final energy is   -1510.30094283455
 **  OPTIMIZATION CONVERGED  **

                    Orbital Energies (a.u.)
 --------------------------------------------------------------

 Alpha MOs
 -- Occupied --
-18.938 -18.933 -18.924 -18.902 -18.898 -18.883 -18.882 -18.878
-18.868 -18.847 -10.106 -10.102 -10.093 -10.078 -10.076 -10.071
-10.059 -10.058 -10.057 -10.054 -10.050 -10.036 -10.035 -10.035
-10.024 -10.018 -10.018 -10.017 -10.015 -10.009  -1.020  -1.011
 -1.002  -0.983  -0.973  -0.966  -0.943  -0.937  -0.929  -0.909
 -0.763  -0.757  -0.726  -0.719  -0.711  -0.701  -0.694  -0.657
 -0.631  -0.618  -0.592  -0.576  -0.544  -0.539  -0.535  -0.531
 -0.511  -0.504  -0.481  -0.464  -0.459  -0.450  -0.448  -0.445
 -0.435  -0.429  -0.425  -0.412  -0.406  -0.400  -0.397  -0.390
 -0.378  -0.375  -0.374  -0.361  -0.354  -0.353  -0.349  -0.345
 -0.341  -0.334  -0.329  -0.328  -0.325  -0.321  -0.317  -0.307
 -0.306  -0.302  -0.297  -0.295  -0.295  -0.279  -0.271  -0.269
 -0.265  -0.257  -0.249  -0.246  -0.239  -0.230  -0.216  -0.189
 -0.172  -0.168  -0.160  -0.157  -0.154  -0.146  -0.141  -0.139
 -0.128

          Ground-State Mulliken Net Atomic Charges

     Atom                 Charge (a.u.)
  ----------------------------------------
      1 O                    -0.216593
      2 C                     0.210087
      3 C                    -0.081350
      4 C                    -0.077324
      5 C                     0.218677
      6 O                    -0.172671
      7 C                    -0.050434
      8 C                    -0.056770
      9 O                    -0.171850
     10 C                     0.222035
     11 C                    -0.079022
     12 C                    -0.080696
     13 C                     0.214578
     14 O                    -0.212177
     15 O                    -0.180788
     16 O                    -0.175577
     17 O                    -0.213559
     18 C                    -0.128950
     19 C                     0.024117
     20 C                    -0.142589
     21 C                    -0.143490
     22 C                     0.026910
     23 O                    -0.178455
     24 H                     0.087459
     25 H                     0.084933
     26 H                     0.110395
     27 H                     0.082439
     28 H                     0.073673
     29 H                     0.079919
     30 H                     0.072930
     31 H                     0.090570
     32 O                    -0.213184
     33 C                    -0.151071
     34 C                     0.023995
     35 C                    -0.143586
     36 C                    -0.144091
     37 C                     0.024907
     38 O                    -0.190778
     39 H                     0.082285
     40 H                     0.087437
     41 H                     0.118399
     42 H                     0.090630
     43 H                     0.077088
     44 H                     0.073411
     45 H                     0.077116
     46 H                     0.073497
     47 H                     0.080412
     48 H                     0.068731
     49 H                     0.085806
     50 H                     0.087014
     51 H                     0.088235
     52 H                     0.092272
     53 H                     0.085220
     54 H                     0.105686
     55 H                     0.090303
     56 H                     0.093836
  ----------------------------------------
  Sum of atomic charges =     0.000000

                    Cartesian Multipole Moments
 -----------------------------------------------------------------
    Charge (ESU x 10^10)
                -0.0000
    Dipole Moment (Debye)
         X      -0.1529      Y      -3.0902      Z      -0.3581
       Tot       3.1146
    Quadrupole Moments (Debye-Ang)
        XX    -141.5224     XY      -0.6512     YY    -154.5177
        XZ       6.1257     YZ      -1.2561     ZZ    -159.0569

 Total job time:  94.58s(wall), 4508.47s(cpu)
        *  Thank you very much for using Q-Chem.  Have a nice day.  *
