 Q-Chem 5.0, Q-Chem, Inc., Pleasanton, CA (2017)
 Q-Chem 5.0.1 for Intel X86 EM64T Linux

User input:
--------------------------------------------------------------
$molecule
0  1
O -3.94934 -3.66094 2.70899
C -3.26408 -4.56952 2.26188
C -3.36658 -6.02376 2.66595
C -2.30727 -6.55757 3.64409
C -1.36996 -5.53491 4.24717
O -0.30158 -6.16501 4.81898
C 0.64832 -5.25809 5.38859
C 1.40888 -4.53141 4.28424
O 1.33793 -3.11221 4.49333
C 1.02468 -2.37639 3.39808
C 0.96878 -0.89407 3.68142
C 0.62895 -0.01557 2.46856
C 0.05461 -0.74029 1.26789
O -1.03944 -0.52499 0.76662
O -2.5384 -4.33966 1.14012
O 1.00191 -1.3307 0.48386
O 0.83079 -2.91144 2.31909
C 0.78237 -1.8972 -0.75296
C -0.15107 -0.49338 4.66015
C 0.21707 0.82372 5.33876
C 0.07487 1.78718 4.17797
C -0.48556 0.84405 3.10509
O -1.22139 -0.10845 3.83421
H 1.9582 -0.61966 4.11314
H 1.48693 0.59922 2.11663
H -0.37617 -1.27159 5.42183
H -0.58604 1.03812 6.08017
H 1.2022 0.84311 5.85258
H -0.67115 2.56377 4.45778
H 1.01877 2.26686 3.83943
H -1.05661 1.42773 2.34988
O -1.4969 -4.31743 4.18513
C -2.7371 -3.23592 0.34093
C -4.63316 -6.29089 3.51861
C -5.0164 -7.76933 3.44631
C -3.91989 -8.38659 4.2871
C -3.19282 -7.1246 4.7603
O -4.2076 -6.15684 4.853
H -3.46976 -6.62354 1.73325
H -1.67303 -7.31789 3.13445
H -2.5897 -2.31358 0.92987
H -5.50473 -5.66797 3.21946
H -5.98225 -7.8831 3.98925
H -5.12311 -8.18569 2.42162
H -4.38963 -8.91303 5.14757
H -3.23672 -9.07625 3.74544
H -2.62388 -7.3295 5.69414
H -3.77398 -3.2426 -0.05843
H -2.04367 -3.26935 -0.51835
H 1.74907 -2.25521 -1.16214
H 0.35339 -1.14801 -1.45198
H 0.10862 -2.76801 -0.65678
H 2.48022 -4.81079 4.38659
H 1.12681 -4.92132 3.28117
H 1.37612 -5.86687 5.96774
H 0.17452 -4.56616 6.12255
$end

$opt
CONSTRAINT
tors           1           2           3           4    -101.695
tors           3           4           5           6    -165.219
tors           4           5           6           7    +178.747
tors           5           6           7           8     -71.878
tors           6           7           8           9    +127.210
tors           7           8           9          10    -133.252
tors           8           9          10          11    -179.868
tors           9          10          11          12    +179.510
tors          11          12          13          14    +120.289
ENDCONSTRAINT
$end

$rem
JOBTYPE                   OPT
METHOD                    B3LYP
DFT_D                     d3_op
BASIS                     STO-3G
GEOM_OPT_MAX_CYCLES       100
GEOM_OPT_TOL_GRADIENT     300
GEOM_OPT_TOL_DISPLACEMENT 1200
GEOM_OPT_TOL_ENERGY       100
SYMMETRY                  False
THRESH                    12
SCF_CONVERGENCE           8
MAX_SUB_FILE_NUM          128
MEM_STATIC                400
MEM_TOTAL                 4000
$end
--------------------------------------------------------------

   15   -1510.1449179426      6.33E-09 Convergence criterion met
 Total energy in the final basis set = -1510.14491794
   14   -1510.2158719570      4.91E-09 Convergence criterion met
 Total energy in the final basis set = -1510.21587196
   14   -1510.2494111852      2.38E-09 Convergence criterion met
 Total energy in the final basis set = -1510.24941119
   14   -1510.2680953814      9.18E-09 Convergence criterion met
 Total energy in the final basis set = -1510.26809538
   13   -1510.2763112658      6.30E-09 Convergence criterion met
 Total energy in the final basis set = -1510.27631127
   13   -1510.2819574766      4.18E-09 Convergence criterion met
 Total energy in the final basis set = -1510.28195748
   13   -1510.2863918094      5.06E-09 Convergence criterion met
 Total energy in the final basis set = -1510.28639181
   13   -1510.2889159560      6.95E-09 Convergence criterion met
   11   -1510.2961383265      7.30E-09 Convergence criterion met
 Total energy in the final basis set = -1510.29613833
   10   -1510.2962296949      6.89E-09 Convergence criterion met
 Total energy in the final basis set = -1510.29622969
   10   -1510.2962732409      8.72E-09 Convergence criterion met
 Total energy in the final basis set = -1510.29627324
   10   -1510.2962828410      5.77E-09 Convergence criterion met
 Total energy in the final basis set = -1510.29628284
    9   -1510.2962857237      8.74E-09 Convergence criterion met
 Total energy in the final basis set = -1510.29628572
    9   -1510.2962869128      3.03E-09 Convergence criterion met
 Total energy in the final basis set = -1510.29628691

             Standard Nuclear Orientation (Angstroms)
    I     Atom           X                Y                Z
 ----------------------------------------------------------------
    1      O      -1.6632410109     1.0916671905     2.2886337649
    2      C      -1.9406217786     1.2812895803     1.0846203337
    3      C      -3.3442057268     1.0589870886     0.3987291371
    4      C      -3.4714237540    -0.2798008311    -0.4362852244
    5      C      -2.1460400142    -1.1014943196    -0.5117270782
    6      O      -2.2827462267    -2.0799345631    -1.5548313980
    7      C      -1.0299647905    -2.8607334955    -1.6762964058
    8      C       0.1508801090    -2.0273382878    -2.3107902085
    9      O       1.3277915951    -2.1130031350    -1.4129605825
   10      C       1.8940393704    -0.8159037095    -1.2145458345
   11      C       3.1302878398    -0.9549764967    -0.2671956568
   12      C       3.8369608466     0.4323196752     0.0047285349
   13      C       3.4033950765     1.5831173143    -0.9781906826
   14      O       2.8680828133     2.6766033573    -0.6942535555
   15      O      -1.0555095929     1.8455764458     0.1176835141
   16      O       3.9000205176     1.2418760663    -2.2807177830
   17      O       1.4242782255     0.2422461419    -1.6927158502
   18      C       3.4612931613     2.2564688804    -3.2639990094
   19      C       2.6036061797    -1.3019195597     1.1941778006
   20      C       3.8347204066    -1.6263358730     2.1285348690
   21      C       4.3952344209    -0.1828370501     2.4190366326
   22      C       3.4448989004     0.6942590331     1.5174824884
   23      O       2.1351867792     0.0166809695     1.6800547560
   24      H       3.8193100710    -1.7227438342    -0.6614137684
   25      H       4.9314077382     0.3172456930    -0.0975608722
   26      H       1.7764274120    -2.0382987694     1.2123777888
   27      H       3.4972999661    -2.1248289737     3.0509308107
   28      H       4.5709095141    -2.2736598468     1.6254403260
   29      H       4.2741800740     0.0883887584     3.4799474265
   30      H       5.4558492095    -0.0732217173     2.1421817697
   31      H       3.3606537791     1.7646859281     1.7876298758
   32      O      -1.1188459192    -0.9782056801     0.1910990611
   33      C       0.2691481001     2.0901932562     0.7366683906
   34      C      -4.4574546381     0.8221135582     1.5013500846
   35      C      -5.8810844518     0.9749398876     0.8343509160
   36      C      -5.9925310113    -0.3783039923     0.0377789152
   37      C      -4.6040097109    -1.0460802612     0.3830951439
   38      O      -4.3563297330    -0.6312042220     1.7794483426
   39      H      -3.5641179637     1.9342729273    -0.2381927731
   40      H      -3.8062345551    -0.0839346952    -1.4706307053
   41      H       0.7555976519     1.1477644317     1.0849111000
   42      H      -4.2989586217     1.3987653483     2.4330318508
   43      H      -6.6639050545     1.0549257336     1.6053330840
   44      H      -5.9391407332     1.8589794101     0.1794180782
   45      H      -6.8199658692    -1.0016848756     0.4125080448
   46      H      -6.1250840732    -0.2285264530    -1.0457311792
   47      H      -4.5727433833    -2.1490011456     0.2870232149
   48      H       0.1807375149     2.7850030746     1.5957597706
   49      H       0.9114414112     2.5462231614    -0.0413217721
   50      H       3.9108547538     1.9629652117    -4.2304695115
   51      H       3.8047695738     3.2739418708    -2.9865562826
   52      H       2.3557964363     2.2688653254    -3.3568749161
   53      H       0.4331949648    -2.4436592127    -3.3009238355
   54      H      -0.1261636875    -0.9576740735    -2.4372404554
   55      H      -1.2892536416    -3.7233658848    -2.3210316520
   56      H      -0.6957327091    -3.2343425889    -0.6833860059
 ----------------------------------------------------------------

    8   -1510.2962871166      7.69E-09 Convergence criterion met
 Total energy in the final basis set = -1510.29628712
 Final energy is   -1510.29628711656
 **  OPTIMIZATION CONVERGED  **

                    Orbital Energies (a.u.)
 --------------------------------------------------------------

 Alpha MOs
 -- Occupied --
-18.942 -18.936 -18.924 -18.899 -18.899 -18.890 -18.882 -18.881
-18.868 -18.841 -10.109 -10.101 -10.097 -10.078 -10.073 -10.072
-10.065 -10.062 -10.057 -10.056 -10.049 -10.044 -10.037 -10.033
-10.023 -10.022 -10.022 -10.016 -10.013 -10.008  -1.023  -1.014
 -1.003  -0.979  -0.977  -0.963  -0.946  -0.939  -0.929  -0.904
 -0.768  -0.756  -0.729  -0.720  -0.712  -0.703  -0.693  -0.658
 -0.630  -0.619  -0.594  -0.577  -0.549  -0.541  -0.537  -0.529
 -0.515  -0.505  -0.483  -0.467  -0.459  -0.456  -0.448  -0.444
 -0.434  -0.434  -0.425  -0.411  -0.406  -0.402  -0.398  -0.389
 -0.380  -0.375  -0.371  -0.365  -0.355  -0.351  -0.350  -0.347
 -0.339  -0.336  -0.330  -0.327  -0.326  -0.321  -0.315  -0.315
 -0.307  -0.306  -0.303  -0.295  -0.291  -0.280  -0.275  -0.269
 -0.263  -0.257  -0.253  -0.248  -0.240  -0.227  -0.219  -0.190
 -0.176  -0.168  -0.165  -0.156  -0.154  -0.147  -0.139  -0.137
 -0.123

          Ground-State Mulliken Net Atomic Charges

     Atom                 Charge (a.u.)
  ----------------------------------------
      1 O                    -0.218802
      2 C                     0.211877
      3 C                    -0.081279
      4 C                    -0.079087
      5 C                     0.211633
      6 O                    -0.173117
      7 C                    -0.050406
      8 C                    -0.055776
      9 O                    -0.170980
     10 C                     0.221855
     11 C                    -0.076727
     12 C                    -0.081327
     13 C                     0.220349
     14 O                    -0.217654
     15 O                    -0.179226
     16 O                    -0.176100
     17 O                    -0.204299
     18 C                    -0.128623
     19 C                     0.028127
     20 C                    -0.143944
     21 C                    -0.142302
     22 C                     0.025271
     23 O                    -0.182213
     24 H                     0.089173
     25 H                     0.085042
     26 H                     0.093457
     27 H                     0.081194
     28 H                     0.074171
     29 H                     0.080852
     30 H                     0.074084
     31 H                     0.093073
     32 O                    -0.204041
     33 C                    -0.152217
     34 C                     0.025481
     35 C                    -0.144751
     36 C                    -0.143271
     37 C                     0.025547
     38 O                    -0.187874
     39 H                     0.082086
     40 H                     0.085126
     41 H                     0.105754
     42 H                     0.088582
     43 H                     0.076859
     44 H                     0.072873
     45 H                     0.076970
     46 H                     0.072714
     47 H                     0.081879
     48 H                     0.071700
     49 H                     0.093507
     50 H                     0.086725
     51 H                     0.088086
     52 H                     0.092667
     53 H                     0.084062
     54 H                     0.106523
     55 H                     0.090033
     56 H                     0.096683
  ----------------------------------------
  Sum of atomic charges =    -0.000000

                    Cartesian Multipole Moments
 -----------------------------------------------------------------
    Charge (ESU x 10^10)
                -0.0000
    Dipole Moment (Debye)
         X       1.4760      Y      -2.0430      Z      -3.0367
       Tot       3.9464
    Quadrupole Moments (Debye-Ang)
        XX    -139.0083     XY      -4.2259     YY    -155.8940
        XZ       7.3904     YZ       1.5077     ZZ    -159.8615

 Total job time:  66.34s(wall), 3159.78s(cpu)
        *  Thank you very much for using Q-Chem.  Have a nice day.  *
