 Q-Chem 5.0, Q-Chem, Inc., Pleasanton, CA (2017)
 Q-Chem 5.0.1 for Intel X86 EM64T Linux

User input:
--------------------------------------------------------------
$molecule
0  1
O -3.94934 -3.66094 2.70899
C -3.26408 -4.56952 2.26188
C -3.36658 -6.02376 2.66595
C -2.1637 -6.92746 2.34928
C -0.92277 -6.23941 1.8251
O -0.33243 -7.01372 0.86731
C 0.56821 -6.2827 0.02843
C -0.19622 -5.62391 -1.11515
O -0.35072 -6.55279 -2.19968
C -1.53967 -6.49771 -2.84969
C -2.1707 -5.12636 -2.80679
C -1.22461 -3.96733 -3.15298
C 0.07741 -4.35522 -3.82454
O 0.6307 -3.72602 -4.71478
O -2.47927 -4.2397 1.20248
O 0.99396 -5.26419 -3.39477
O -1.87921 -7.37695 -3.62609
C 2.22082 -5.59026 -3.95289
C -3.26506 -4.91241 -3.88338
C -4.22573 -3.80937 -3.43788
C -3.32819 -2.59581 -3.547
C -2.09075 -3.23077 -4.19482
O -2.60132 -4.29591 -4.95739
H -2.71692 -5.01012 -1.84578
H -0.97681 -3.3174 -2.29038
H -3.84149 -5.83109 -4.12786
H -5.0139 -3.74088 -4.22222
H -4.71284 -3.94982 -2.44892
H -3.814 -1.86143 -4.22696
H -3.06678 -2.11049 -2.58144
H -1.52198 -2.45866 -4.75789
O -0.38164 -5.28392 2.37266
C -2.34338 -2.95667 0.70607
C -3.38434 -6.14967 4.20779
C -4.00951 -7.48265 4.61945
C -2.90219 -8.4396 4.2386
C -1.83658 -7.44898 3.76063
O -2.03762 -6.31756 4.56774
H -4.33872 -6.40178 2.27893
H -2.43218 -7.77057 1.67215
H -1.95606 -2.28005 1.49755
H -3.92059 -5.31661 4.71319
H -4.10522 -7.47815 5.72904
H -5.0014 -7.69583 4.16605
H -2.55451 -8.95977 5.15898
H -3.16439 -9.18562 3.4575
H -0.827 -7.91423 3.81638
H -3.32125 -2.58293 0.3341
H -1.62086 -2.95647 -0.12957
H 2.69647 -6.38411 -3.34129
H 2.88874 -4.70267 -3.96263
H 2.07988 -5.97136 -4.98669
H -1.0942 -5.20784 -0.64264
H 0.47735 -4.78053 -1.34205
H 1.35507 -6.95225 -0.38025
H 1.13093 -5.52052 0.61731
$end

$opt
CONSTRAINT
tors           1           2           3           4    -161.053
tors           3           4           5           6    -142.105
tors           4           5           6           7    +161.053
tors           5           6           7           8     -85.263
tors           6           7           8           9     -85.263
tors           7           8           9          10    +142.105
tors           8           9          10          11     +28.421
tors           9          10          11          12     +47.368
tors          11          12          13          14    +142.105
ENDCONSTRAINT
$end

$rem
JOBTYPE                   OPT
METHOD                    B3LYP
DFT_D                     d3_op
BASIS                     STO-3G
GEOM_OPT_MAX_CYCLES       100
GEOM_OPT_TOL_GRADIENT     300
GEOM_OPT_TOL_DISPLACEMENT 1200
GEOM_OPT_TOL_ENERGY       100
SYMMETRY                  False
THRESH                    12
SCF_CONVERGENCE           8
MAX_SUB_FILE_NUM          128
MEM_STATIC                400
MEM_TOTAL                 4000
$end
--------------------------------------------------------------

   15   -1510.0800619349      7.67E-09 Convergence criterion met
 Total energy in the final basis set = -1510.08006193
   14   -1510.1640274493      8.55E-09 Convergence criterion met
 Total energy in the final basis set = -1510.16402745
   14   -1510.2109868191      9.74E-09 Convergence criterion met
 Total energy in the final basis set = -1510.21098682
   14   -1510.2381115881      4.71E-09 Convergence criterion met
 Total energy in the final basis set = -1510.23811159
   14   -1510.2512592027      5.49E-09 Convergence criterion met
 Total energy in the final basis set = -1510.25125920
   14   -1510.2565262734      5.69E-09 Convergence criterion met
 Total energy in the final basis set = -1510.25652627
   13   -1510.2584968159      5.72E-09 Convergence criterion met
 Total energy in the final basis set = -1510.25849682
   13   -1510.2596256405      6.02E-09 Convergence criterion met
   11   -1510.2604254080      4.12E-09 Convergence criterion met
 Total energy in the final basis set = -1510.26042541
   11   -1510.2604537703      5.75E-09 Convergence criterion met
 Total energy in the final basis set = -1510.26045377
   11   -1510.2604731667      2.67E-09 Convergence criterion met
 Total energy in the final basis set = -1510.26047317
   11   -1510.2604791768      2.78E-09 Convergence criterion met
 Total energy in the final basis set = -1510.26047918
    9   -1510.2604824812      4.40E-09 Convergence criterion met
 Total energy in the final basis set = -1510.26048248
    9   -1510.2604835896      6.21E-09 Convergence criterion met
 Total energy in the final basis set = -1510.26048359

             Standard Nuclear Orientation (Angstroms)
    I     Atom           X                Y                Z
 ----------------------------------------------------------------
    1      O      -2.8489520003    -2.5981394800    -1.4631126428
    2      C      -2.5800214875    -1.5599175000    -0.8207607994
    3      C      -3.5119260245    -0.8965000116     0.2526955588
    4      C      -3.2679465831     0.6152489964     0.6473693276
    5      C      -2.4031927269     1.4282748856    -0.3776875433
    6      O      -1.5578720558     2.3104547996     0.3788433911
    7      C      -0.4212477568     2.7662587424    -0.4536090628
    8      C       0.7398709318     1.7087400470    -0.3892253402
    9      O       1.5551041817     2.0062278311     0.8115260085
   10      C       2.0352278887     0.8486961857     1.5090696877
   11      C       2.2949465473    -0.5009947259     0.7187394713
   12      C       3.0985600851    -0.5460454711    -0.6503361223
   13      C       4.1231416500     0.6073141544    -0.9977254074
   14      O       5.2187710458     0.4328998872    -1.5766099553
   15      O      -1.2835612406    -0.9384102532    -0.8596316280
   16      O       3.6338788008     1.8879086672    -0.6136262957
   17      O       2.3119811313     0.9801848430     2.7223227243
   18      C       4.6215791695     2.9377228041    -0.9530753867
   19      C       3.0925555357    -1.5700608551     1.5852078808
   20      C       2.5334485146    -2.9931732937     1.2005173723
   21      C       3.0822113429    -3.1279145753    -0.2702353791
   22      C       3.9862681465    -1.8367217392    -0.3861617778
   23      O       4.4522489935    -1.5884703447     0.9999854959
   24      H       1.2898283568    -0.9155089334     0.5111984079
   25      H       2.4132992565    -0.6699736847    -1.5088221119
   26      H       3.1272461625    -1.3259908021     2.6652341589
   27      H       2.9634108275    -3.7643136438     1.8597020270
   28      H       1.4345217366    -3.0499052093     1.2572304055
   29      H       3.6889832581    -4.0381681823    -0.3977115241
   30      H       2.2774589916    -3.1348571766    -1.0233323369
   31      H       4.8485936909    -1.9095755932    -1.0773879535
   32      O      -2.4473330118     1.3883423233    -1.6256899256
   33      C      -0.4512403718    -1.6218692541    -1.8781399663
   34      C      -5.0448409017    -0.8770560311    -0.1741751867
   35      C      -5.9054513355    -0.9234690753     1.1467373458
   36      C      -5.6246754065     0.5117032750     1.7286167428
   37      C      -4.7660506584     1.1560154843     0.5683024466
   38      O      -5.2659550892     0.5026135322    -0.6634548949
   39      H      -3.3971344122    -1.5208547556     1.1601120448
   40      H      -2.8261290199     0.7230935761     1.6524553029
   41      H      -1.0053351788    -1.7677149433    -2.8262796989
   42      H      -5.3082397014    -1.6218977860    -0.9504960793
   43      H      -6.9715272544    -1.0553808282     0.9014201083
   44      H      -5.5954489739    -1.7328121660     1.8269546785
   45      H      -6.5564380664     1.0783987737     1.8832006896
   46      H      -5.0686968239     0.4816310615     2.6794907771
   47      H      -4.8462842699     2.2571987363     0.4826287408
   48      H      -0.1038779834    -2.6124523793    -1.5176051107
   49      H       0.4218580523    -0.9689689707    -2.0567322686
   50      H       4.1816792657     3.8879431402    -0.5986945734
   51      H       4.7996683943     2.9921595882    -2.0466499792
   52      H       5.5914368616     2.7626546493    -0.4449476224
   53      H       0.2827089264     0.6976236595    -0.3691971569
   54      H       1.3810375501     1.8003804798    -1.2934326836
   55      H      -0.0777148075     3.7347268556    -0.0381679818
   56      H      -0.7491899627     2.8963552043    -1.5079591420
 ----------------------------------------------------------------

    9   -1510.2604839066      2.59E-09 Convergence criterion met
 Total energy in the final basis set = -1510.26048391
 Final energy is   -1510.26048390656
 **  OPTIMIZATION CONVERGED  **

                    Orbital Energies (a.u.)
 --------------------------------------------------------------

 Alpha MOs
 -- Occupied --
-18.948 -18.944 -18.930 -18.929 -18.893 -18.887 -18.886 -18.879
-18.878 -18.874 -10.111 -10.104 -10.103 -10.101 -10.078 -10.074
-10.073 -10.069 -10.065 -10.064 -10.060 -10.058 -10.047 -10.046
-10.042 -10.038 -10.025 -10.024 -10.024 -10.022  -1.024  -1.019
 -1.012  -1.002  -0.976  -0.972  -0.948  -0.942  -0.940  -0.932
 -0.769  -0.765  -0.730  -0.725  -0.716  -0.705  -0.703  -0.675
 -0.668  -0.619  -0.605  -0.587  -0.551  -0.549  -0.542  -0.541
 -0.518  -0.513  -0.491  -0.482  -0.472  -0.468  -0.457  -0.451
 -0.439  -0.436  -0.426  -0.425  -0.420  -0.418  -0.414  -0.410
 -0.398  -0.388  -0.382  -0.378  -0.366  -0.364  -0.359  -0.354
 -0.346  -0.344  -0.338  -0.335  -0.331  -0.328  -0.318  -0.316
 -0.314  -0.311  -0.310  -0.303  -0.299  -0.298  -0.293  -0.279
 -0.277  -0.267  -0.257  -0.248  -0.239  -0.239  -0.235  -0.192
 -0.185  -0.179  -0.166  -0.162  -0.159  -0.156  -0.148  -0.147
 -0.145

          Ground-State Mulliken Net Atomic Charges

     Atom                 Charge (a.u.)
  ----------------------------------------
      1 O                    -0.210932
      2 C                     0.213268
      3 C                    -0.079415
      4 C                    -0.079628
      5 C                     0.213072
      6 O                    -0.175985
      7 C                    -0.050237
      8 C                    -0.051580
      9 O                    -0.165512
     10 C                     0.213208
     11 C                    -0.088042
     12 C                    -0.079399
     13 C                     0.208364
     14 O                    -0.213513
     15 O                    -0.175031
     16 O                    -0.166980
     17 O                    -0.201324
     18 C                    -0.126699
     19 C                     0.022885
     20 C                    -0.142427
     21 C                    -0.146033
     22 C                     0.023566
     23 O                    -0.190433
     24 H                     0.077482
     25 H                     0.076364
     26 H                     0.093978
     27 H                     0.079042
     28 H                     0.071226
     29 H                     0.079631
     30 H                     0.069007
     31 H                     0.092098
     32 O                    -0.210883
     33 C                    -0.129144
     34 C                     0.025746
     35 C                    -0.142453
     36 C                    -0.144996
     37 C                     0.026041
     38 O                    -0.186771
     39 H                     0.085823
     40 H                     0.088892
     41 H                     0.099938
     42 H                     0.090781
     43 H                     0.079518
     44 H                     0.074051
     45 H                     0.079426
     46 H                     0.074834
     47 H                     0.084196
     48 H                     0.085857
     49 H                     0.084446
     50 H                     0.094542
     51 H                     0.088506
     52 H                     0.093935
     53 H                     0.089851
     54 H                     0.085462
     55 H                     0.096843
     56 H                     0.095537
  ----------------------------------------
  Sum of atomic charges =    -0.000000

                    Cartesian Multipole Moments
 -----------------------------------------------------------------
    Charge (ESU x 10^10)
                 0.0000
    Dipole Moment (Debye)
         X      -1.4329      Y      -0.6939      Z      -0.5331
       Tot       1.6790
    Quadrupole Moments (Debye-Ang)
        XX    -173.2010     XY       2.7915     YY    -155.1377
        XZ     -17.7194     YZ      -5.6858     ZZ    -167.0907

 Total job time:  70.73s(wall), 3371.36s(cpu)
        *  Thank you very much for using Q-Chem.  Have a nice day.  *
