 Q-Chem 5.0, Q-Chem, Inc., Pleasanton, CA (2017)
 Q-Chem 5.0.1 for Intel X86 EM64T Linux

User input:
--------------------------------------------------------------
$molecule
0  1
O -2.8489520003 -2.59813948 -1.4631126428
C -2.5800214875 -1.5599175 -0.8207607994
C -3.5119260245 -0.8965000116 0.2526955588
C -3.2679465831 0.6152489964 0.6473693276
C -2.4031927269 1.4282748856 -0.3776875433
O -1.5578720558 2.3104547996 0.3788433911
C -0.4212477568 2.7662587424 -0.4536090628
C 0.7398709318 1.708740047 -0.3892253402
O 1.5551041817 2.0062278311 0.8115260085
C 2.0352278887 0.8486961857 1.5090696877
C 2.2949465473 -0.5009947259 0.7187394713
C 3.0985600851 -0.5460454711 -0.6503361223
C 4.12314165 0.6073141544 -0.9977254074
O 5.2187710458 0.4328998872 -1.5766099553
O -1.2835612406 -0.9384102532 -0.859631628
O 3.6338788008 1.8879086672 -0.6136262957
O 2.3119811313 0.980184843 2.7223227243
C 4.6215791695 2.9377228041 -0.9530753867
C 3.0925555357 -1.5700608551 1.5852078808
C 2.5334485146 -2.9931732937 1.2005173723
C 3.0822113429 -3.1279145753 -0.2702353791
C 3.9862681465 -1.8367217392 -0.3861617778
O 4.4522489935 -1.5884703447 0.9999854959
H 1.2898283568 -0.9155089334 0.5111984079
H 2.4132992565 -0.6699736847 -1.5088221119
H 3.1272461625 -1.3259908021 2.6652341589
H 2.9634108275 -3.7643136438 1.859702027
H 1.4345217366 -3.0499052093 1.2572304055
H 3.6889832581 -4.0381681823 -0.3977115241
H 2.2774589916 -3.1348571766 -1.0233323369
H 4.8485936909 -1.9095755932 -1.0773879535
O -2.4473330118 1.3883423233 -1.6256899256
C -0.4512403718 -1.6218692541 -1.8781399663
C -5.0448409017 -0.8770560311 -0.1741751867
C -5.9054513355 -0.9234690753 1.1467373458
C -5.6246754065 0.511703275 1.7286167428
C -4.7660506584 1.1560154843 0.5683024466
O -5.2659550892 0.5026135322 -0.6634548949
H -3.3971344122 -1.5208547556 1.1601120448
H -2.8261290199 0.7230935761 1.6524553029
H -1.0053351788 -1.7677149433 -2.8262796989
H -5.3082397014 -1.621897786 -0.9504960793
H -6.9715272544 -1.0553808282 0.9014201083
H -5.5954489739 -1.732812166 1.8269546785
H -6.5564380664 1.0783987737 1.8832006896
H -5.0686968239 0.4816310615 2.6794907771
H -4.8462842699 2.2571987363 0.4826287408
H -0.1038779834 -2.6124523793 -1.5176051107
H 0.4218580523 -0.9689689707 -2.0567322686
H 4.1816792657 3.8879431402 -0.5986945734
H 4.7996683943 2.9921595882 -2.0466499792
H 5.5914368616 2.7626546493 -0.4449476224
H 0.2827089264 0.6976236595 -0.3691971569
H 1.3810375501 1.8003804798 -1.2934326836
H -0.0777148075 3.7347268556 -0.0381679818
H -0.7491899627 2.8963552043 -1.507959142
$end

$rem
JOBTYPE                   OPT
METHOD                    B3LYP
DFT_D                     d3_op
BASIS                     STO-3G
GEOM_OPT_MAX_CYCLES       100
GEOM_OPT_TOL_GRADIENT     300
GEOM_OPT_TOL_DISPLACEMENT 1200
GEOM_OPT_TOL_ENERGY       100
SYMMETRY                  False
THRESH                    12
SCF_CONVERGENCE           8
MAX_SUB_FILE_NUM          128
MEM_STATIC                400
MEM_TOTAL                 4000
$end
--------------------------------------------------------------

   16   -1510.2604489106      6.32E-09 Convergence criterion met
 Total energy in the final basis set = -1510.26044891
   13   -1510.2622003732      9.53E-09 Convergence criterion met
 Total energy in the final basis set = -1510.26220037
   13   -1510.2639517590      6.90E-09 Convergence criterion met
 Total energy in the final basis set = -1510.26395176
   13   -1510.2665942596      5.63E-09 Convergence criterion met
 Total energy in the final basis set = -1510.26659426
   13   -1510.2687728257      5.96E-09 Convergence criterion met
 Total energy in the final basis set = -1510.26877283
   13   -1510.2706582684      5.26E-09 Convergence criterion met
 Total energy in the final basis set = -1510.27065827
   13   -1510.2722919430      6.00E-09 Convergence criterion met
 Total energy in the final basis set = -1510.27229194
   13   -1510.2737376407      5.83E-09 Convergence criterion met
   12   -1510.2889752869      3.56E-09 Convergence criterion met
 Total energy in the final basis set = -1510.28897529
   11   -1510.2889666419      7.64E-09 Convergence criterion met
 Total energy in the final basis set = -1510.28896664
   11   -1510.2889778588      3.33E-09 Convergence criterion met
 Total energy in the final basis set = -1510.28897786
   10   -1510.2889829871      9.52E-09 Convergence criterion met
 Total energy in the final basis set = -1510.28898299
   11   -1510.2889935611      5.48E-09 Convergence criterion met
 Total energy in the final basis set = -1510.28899356
   10   -1510.2889911227      7.28E-09 Convergence criterion met
 Total energy in the final basis set = -1510.28899112

             Standard Nuclear Orientation (Angstroms)
    I     Atom           X                Y                Z
 ----------------------------------------------------------------
    1      O      -2.9041733834    -1.5637174215    -2.4393137868
    2      C      -2.2078212725    -1.3762488444    -1.4223095624
    3      C      -2.6945420979    -1.2162595304     0.0632120878
    4      C      -2.4086995209     0.2107754768     0.6869537585
    5      C      -1.7571721372     1.1834519358    -0.3461303342
    6      O      -1.0792600752     2.2227379739     0.3616699441
    7      C      -0.3364733499     3.0940488072    -0.5822674265
    8      C       1.1202627133     2.5230565294    -0.7704120488
    9      O       1.7654290891     2.3600320980     0.5457155803
   10      C       1.2625805668     1.2006143289     1.2680835294
   11      C       1.2650375805    -0.1834102372     0.4964345294
   12      C       2.6554674589    -0.5100166627    -0.2043041060
   13      C       3.7209885128     0.6330417344    -0.0708142599
   14      O       4.4230167662     0.9112004070     0.9239506530
   15      O      -0.7634014891    -1.4113738402    -1.4250627648
   16      O       3.8109993254     1.3108887094    -1.3341640641
   17      O       1.0403443814     1.3154517168     2.4905895490
   18      C       4.7631074350     2.4390214058    -1.2290614764
   19      C       1.1787485308    -1.3706136503     1.5440869455
   20      C       0.8364428953    -2.6920582466     0.7499506858
   21      C       2.2329980762    -3.0277687251     0.1088383296
   22      C       3.0981648965    -1.8049287222     0.6058590163
   23      O       2.5853102312    -1.5536886338     1.9703337561
   24      H       0.4348586965    -0.2608185230    -0.2331872096
   25      H       2.5128948320    -0.7246831450    -1.2779281481
   26      H       0.5391477507    -1.1444345396     2.4193293616
   27      H       0.4945621362    -3.4876897418     1.4298840884
   28      H       0.0712964096    -2.4945440904    -0.0221487959
   29      H       2.6468465415    -3.9701284752     0.5021360884
   30      H       2.1928192587    -3.0933336709    -0.9902144251
   31      H       4.1920894697    -1.9744072304     0.6295738121
   32      O      -1.8054748283     1.0972194493    -1.5950738632
   33      C      -0.2598338692    -1.5153695911    -2.8122224401
   34      C      -4.2757540578    -1.2789634876     0.1507863073
   35      C      -4.6770753410    -1.5552769764     1.6507272406
   36      C      -4.3707309133    -0.1577136187     2.3074633676
   37      C      -3.8886129350     0.6722917681     1.0524194186
   38      O      -4.6890211937     0.1283076178    -0.0659261813
   39      H      -2.2171041779    -2.0069688342     0.6698695081
   40      H      -1.7632488244     0.1612981893     1.5818889171
   41      H      -0.5021689116    -0.6001103904    -3.3903535865
   42      H      -4.7416417359    -1.9374991170    -0.6076740326
   43      H      -5.7465022588    -1.8092516540     1.7230819656
   44      H      -4.0876864448    -2.3731040162     2.0950265675
   45      H      -5.2764600181     0.2937557490     2.7426645804
   46      H      -3.5943288162    -0.2144034174     3.0872596407
   47      H      -4.0181192721     1.7691838698     1.1326240796
   48      H      -0.6900196688    -2.3920898733    -3.3369770806
   49      H       0.8370306877    -1.6271978587    -2.7342080020
   50      H       4.7792939625     2.9213218023    -2.2237949741
   51      H       5.7838554824     2.0917788154    -0.9688869482
   52      H       4.4359568433     3.1724383382    -0.4636173731
   53      H       1.0855727635     1.5812725077    -1.3567156153
   54      H       1.7338874105     3.2580864887    -1.3297768753
   55      H      -0.2965882375     4.0956597816    -0.1107685251
   56      H      -0.8586628050     3.1432831117    -1.5615641524
 ----------------------------------------------------------------

    9   -1510.2889913898      3.35E-09 Convergence criterion met
 Total energy in the final basis set = -1510.28899139
 Final energy is   -1510.28899138979
 **  OPTIMIZATION CONVERGED  **

                    Orbital Energies (a.u.)
 --------------------------------------------------------------

 Alpha MOs
 -- Occupied --
-18.954 -18.946 -18.928 -18.921 -18.896 -18.895 -18.887 -18.886
-18.881 -18.870 -10.118 -10.111 -10.100 -10.094 -10.082 -10.080
-10.074 -10.069 -10.065 -10.062 -10.056 -10.051 -10.049 -10.046
-10.034 -10.027 -10.026 -10.025 -10.015 -10.005  -1.034  -1.019
 -1.009  -1.000  -0.978  -0.965  -0.956  -0.947  -0.938  -0.931
 -0.773  -0.758  -0.733  -0.722  -0.716  -0.706  -0.700  -0.672
 -0.660  -0.624  -0.596  -0.590  -0.554  -0.546  -0.544  -0.534
 -0.520  -0.508  -0.491  -0.481  -0.468  -0.463  -0.460  -0.452
 -0.438  -0.432  -0.431  -0.426  -0.421  -0.415  -0.411  -0.406
 -0.396  -0.395  -0.382  -0.373  -0.367  -0.365  -0.356  -0.353
 -0.350  -0.346  -0.344  -0.335  -0.331  -0.326  -0.320  -0.316
 -0.313  -0.313  -0.307  -0.302  -0.298  -0.293  -0.284  -0.281
 -0.272  -0.265  -0.257  -0.253  -0.242  -0.239  -0.227  -0.201
 -0.188  -0.175  -0.174  -0.166  -0.162  -0.153  -0.152  -0.144
 -0.138

          Ground-State Mulliken Net Atomic Charges

     Atom                 Charge (a.u.)
  ----------------------------------------
      1 O                    -0.203221
      2 C                     0.220584
      3 C                    -0.081675
      4 C                    -0.079667
      5 C                     0.211605
      6 O                    -0.167674
      7 C                    -0.054635
      8 C                    -0.048272
      9 O                    -0.180751
     10 C                     0.213461
     11 C                    -0.095268
     12 C                    -0.083024
     13 C                     0.206468
     14 O                    -0.208853
     15 O                    -0.178839
     16 O                    -0.177184
     17 O                    -0.186842
     18 C                    -0.130208
     19 C                     0.023032
     20 C                    -0.157823
     21 C                    -0.143820
     22 C                     0.026114
     23 O                    -0.187276
     24 H                     0.092173
     25 H                     0.077779
     26 H                     0.084048
     27 H                     0.070128
     28 H                     0.087326
     29 H                     0.076043
     30 H                     0.067936
     31 H                     0.083269
     32 O                    -0.210548
     33 C                    -0.128466
     34 C                     0.025212
     35 C                    -0.143825
     36 C                    -0.143449
     37 C                     0.026477
     38 O                    -0.187237
     39 H                     0.087277
     40 H                     0.092857
     41 H                     0.095316
     42 H                     0.091325
     43 H                     0.079985
     44 H                     0.074658
     45 H                     0.080336
     46 H                     0.077078
     47 H                     0.086005
     48 H                     0.093633
     49 H                     0.087350
     50 H                     0.086188
     51 H                     0.089005
     52 H                     0.091896
     53 H                     0.086177
     54 H                     0.092809
     55 H                     0.096098
     56 H                     0.098907
  ----------------------------------------
  Sum of atomic charges =    -0.000000

                    Cartesian Multipole Moments
 -----------------------------------------------------------------
    Charge (ESU x 10^10)
                -0.0000
    Dipole Moment (Debye)
         X      -0.7260      Y      -0.5863      Z      -2.4202
       Tot       2.5939
    Quadrupole Moments (Debye-Ang)
        XX    -167.8933     XY       1.9941     YY    -150.2372
        XZ     -23.4297     YZ      -6.1494     ZZ    -169.3033

 Total job time:  187.05s(wall), 8929.15s(cpu)
        *  Thank you very much for using Q-Chem.  Have a nice day.  *
