 Q-Chem 5.0, Q-Chem, Inc., Pleasanton, CA (2017)
 Q-Chem 5.0.1 for Intel X86 EM64T Linux

User input:
--------------------------------------------------------------
$molecule
0  1
O -3.94934 -3.66094 2.70899
C -3.26408 -4.56952 2.26188
C -3.36658 -6.02376 2.66595
C -2.27333 -6.57303 3.59705
C -1.29943 -5.56331 4.16282
O -1.98072 -4.4862 4.65384
C -1.90764 -3.33777 3.80237
C -1.79395 -2.06852 4.64035
O -0.41901 -1.82623 4.97757
C 0.45957 -1.92401 3.94914
C 1.56086 -0.89282 4.01607
C 2.98515 -1.46682 4.02983
C 3.11577 -2.92035 3.62131
O 2.42071 -3.83769 4.03356
O -2.59063 -4.38764 1.08604
O 4.01977 -3.21225 2.64586
O 0.29307 -2.32161 2.8108
C 4.24741 -4.47601 2.14177
C 1.6578 0.07497 2.81334
C 2.31478 1.37903 3.25893
C 3.73493 0.90895 3.50234
C 3.6419 -0.5345 2.98851
O 2.65404 -0.47968 1.98703
H 1.38259 -0.2793 4.93057
H 3.42678 -1.39893 5.04814
H 0.67664 0.28158 2.33247
H 2.30897 2.05538 2.37387
H 1.83532 1.89936 4.11578
H 4.41727 1.52078 2.87147
H 4.06824 0.93264 4.56247
H 4.64853 -0.87984 2.66859
O -0.08448 -5.60683 4.03377
C -2.62794 -3.26527 0.27934
C -4.61231 -6.29728 3.54367
C -4.99053 -7.77799 3.4763
C -3.88057 -8.38999 4.30372
C -3.13753 -7.12602 4.74493
O -4.15432 -6.1625 4.86525
H -3.48715 -6.61666 1.73088
H -1.67035 -7.37575 3.11728
H -2.2108 -2.37257 0.78381
H -5.49065 -5.67494 3.2643
H -5.95016 -7.90248 4.02753
H -5.10197 -8.18916 2.44996
H -4.33555 -8.89321 5.1859
H -3.21816 -9.09948 3.76213
H -2.54158 -7.32543 5.66311
H -3.67051 -3.05886 -0.04002
H -2.011 -3.45551 -0.62287
H 5.03788 -4.42093 1.36554
H 3.31969 -4.87786 1.68136
H 4.58953 -5.15456 2.95244
H -2.17145 -1.16028 4.10619
H -2.40593 -2.14632 5.56363
H -2.05137 -2.77141 2.86533
H -1.21602 -3.64612 3.0239
$end

$opt
CONSTRAINT
tors           1           2           3           4    -104.211
tors           3           4           5           6     +47.368
tors           4           5           6           7    -104.211
tors           5           6           7           8    -142.105
tors           6           7           8           9     +85.263
tors           7           8           9          10     +47.368
tors           8           9          10          11    +142.105
tors           9          10          11          12    +123.158
tors          11          12          13          14     -47.368
ENDCONSTRAINT
$end

$rem
JOBTYPE                   OPT
METHOD                    B3LYP
DFT_D                     d3_op
BASIS                     STO-3G
GEOM_OPT_MAX_CYCLES       100
GEOM_OPT_TOL_GRADIENT     300
GEOM_OPT_TOL_DISPLACEMENT 1200
GEOM_OPT_TOL_ENERGY       100
SYMMETRY                  False
THRESH                    12
SCF_CONVERGENCE           8
MAX_SUB_FILE_NUM          128
MEM_STATIC                400
MEM_TOTAL                 4000
$end
--------------------------------------------------------------

   16   -1509.9145061038      2.45E-09 Convergence criterion met
 Total energy in the final basis set = -1509.91450610
   13   -1510.0082975854      9.49E-09 Convergence criterion met
 Total energy in the final basis set = -1510.00829759
   14   -1510.0804756206      3.39E-09 Convergence criterion met
 Total energy in the final basis set = -1510.08047562
   14   -1510.1323323503      6.24E-09 Convergence criterion met
 Total energy in the final basis set = -1510.13233235
   14   -1510.1715202194      5.99E-09 Convergence criterion met
 Total energy in the final basis set = -1510.17152022
   14   -1510.1985979611      6.22E-09 Convergence criterion met
 Total energy in the final basis set = -1510.19859796
   14   -1510.2166583174      4.85E-09 Convergence criterion met
 Total energy in the final basis set = -1510.21665832
   13   -1510.2284798297      5.72E-09 Convergence criterion met
   11   -1510.2435144939      4.25E-09 Convergence criterion met
 Total energy in the final basis set = -1510.24351449
   10   -1510.2435257370      6.14E-09 Convergence criterion met
 Total energy in the final basis set = -1510.24352574
   10   -1510.2435301809      8.75E-09 Convergence criterion met
 Total energy in the final basis set = -1510.24353018
    9   -1510.2435324121      4.97E-09 Convergence criterion met
 Total energy in the final basis set = -1510.24353241
    9   -1510.2435338318      3.32E-09 Convergence criterion met
 Total energy in the final basis set = -1510.24353383
    9   -1510.2435348455      4.62E-09 Convergence criterion met
 Total energy in the final basis set = -1510.24353485

             Standard Nuclear Orientation (Angstroms)
    I     Atom           X                Y                Z
 ----------------------------------------------------------------
    1      O       3.2052552738    -2.5123873542    -0.7286153396
    2      C       3.2635857451    -1.4172489087    -1.3318961278
    3      C       4.1667808626    -0.1855428618    -1.0161402690
    4      C       3.4913181258     1.0723788126    -0.3167131027
    5      C       2.0654092844     0.9932198969     0.3740899363
    6      O       1.8048783385    -0.1138866315     1.2738618733
    7      C       0.9406741978    -1.1441303282     0.6566207644
    8      C      -0.0445538070    -1.6987991264     1.7529124504
    9      O      -1.3011526021    -0.9325568184     1.9702471837
   10      C      -1.9996629663    -0.5830349929     0.7683577657
   11      C      -3.5461248816    -0.7087128272     1.0275853102
   12      C      -4.3545267765     0.6282208791     0.7430341081
   13      C      -3.3992668112     1.8390583637     0.4368153338
   14      O      -2.3893452197     2.1552727830     1.1036419025
   15      O       2.4720016842    -1.0911365577    -2.4779305992
   16      O      -3.8554496353     2.5553221307    -0.7117486114
   17      O      -1.4913278997    -0.3027692147    -0.3446769605
   18      C      -2.9270292035     3.6721551812    -1.0053621911
   19      C      -4.1956176962    -1.6732479625    -0.0578263107
   20      C      -5.6561267782    -2.0476343776     0.4162430429
   21      C      -6.4343437443    -0.7204204194     0.0838071661
   22      C      -5.2676566878     0.1839038352    -0.4753884908
   23      O      -4.4165722097    -0.7779435571    -1.2148461177
   24      H      -3.7015323263    -1.0720113402     2.0579648125
   25      H      -4.9673476523     0.9007985233     1.6224697454
   26      H      -3.5610985069    -2.5324194963    -0.3502731074
   27      H      -6.0424193383    -2.9000627560    -0.1648617614
   28      H      -5.6903810804    -2.3049162479     1.4868995291
   29      H      -7.1958082481    -0.8861888867    -0.6947336825
   30      H      -6.9221631740    -0.2782873552     0.9672940315
   31      H      -5.5755090582     1.0164992353    -1.1361932960
   32      O       1.2294193774     1.9118594905     0.2188658727
   33      C       1.5750840502    -2.2163073596    -2.8320000325
   34      C       5.3535846568    -0.5166945718    -0.0117853076
   35      C       6.5341272094     0.4770641614    -0.3369332692
   36      C       5.9269931258     1.8290331164     0.1930800039
   37      C       4.5689678632     1.3318781858     0.8344812459
   38      O       4.8690819510    -0.0391198935     1.3018685947
   39      H       4.5717832431     0.1525123844    -1.9877508955
   40      H       3.4342069211     1.9215918682    -1.0208048351
   41      H       0.7571930508    -2.3296145885    -2.0919205246
   42      H       5.6187471613    -1.5905520139     0.0393518307
   43      H       7.4386324130     0.1954198396     0.2257136860
   44      H       6.7783258158     0.5069100017    -1.4108099425
   45      H       6.5694577683     2.2912165764     0.9590349580
   46      H       5.7555393108     2.5619329562    -0.6115335001
   47      H       4.1959673352     1.9530850278     1.6720567869
   48      H       2.1289691419    -3.1743404894    -2.8989207115
   49      H       1.1416203927    -1.9631632836    -3.8168491865
   50      H      -3.2868088920     4.1272827311    -1.9463871822
   51      H      -1.8870836270     3.3098107846    -1.1357564566
   52      H      -2.9362253970     4.4326267301    -0.1976631565
   53      H      -0.3168502943    -2.7438369812     1.4790599266
   54      H       0.4592183856    -1.7165290911     2.7414024124
   55      H       1.5701634020    -1.9918910819     0.3067986866
   56      H       0.3054730485    -0.7452766761    -0.1674408377
 ----------------------------------------------------------------

    9   -1510.2435352182      4.00E-09 Convergence criterion met
 Total energy in the final basis set = -1510.24353522
 Final energy is   -1510.24353521824
 **  OPTIMIZATION CONVERGED  **

                    Orbital Energies (a.u.)
 --------------------------------------------------------------

 Alpha MOs
 -- Occupied --
-18.940 -18.932 -18.923 -18.887 -18.887 -18.886 -18.886 -18.880
-18.879 -18.868 -10.105 -10.101 -10.096 -10.094 -10.067 -10.065
-10.060 -10.058 -10.058 -10.058 -10.055 -10.043 -10.039 -10.034
-10.033 -10.033 -10.020 -10.019 -10.018 -10.018  -1.016  -1.008
 -1.002  -0.992  -0.969  -0.968  -0.941  -0.936  -0.930  -0.919
 -0.761  -0.760  -0.722  -0.720  -0.708  -0.704  -0.691  -0.666
 -0.656  -0.606  -0.597  -0.578  -0.545  -0.543  -0.536  -0.535
 -0.513  -0.510  -0.478  -0.471  -0.463  -0.455  -0.443  -0.439
 -0.432  -0.430  -0.421  -0.414  -0.408  -0.407  -0.405  -0.403
 -0.384  -0.382  -0.373  -0.370  -0.361  -0.358  -0.350  -0.349
 -0.342  -0.335  -0.333  -0.332  -0.329  -0.326  -0.321  -0.310
 -0.309  -0.305  -0.303  -0.296  -0.289  -0.284  -0.278  -0.274
 -0.270  -0.258  -0.249  -0.237  -0.234  -0.232  -0.223  -0.183
 -0.173  -0.170  -0.161  -0.154  -0.147  -0.144  -0.141  -0.140
 -0.133

          Ground-State Mulliken Net Atomic Charges

     Atom                 Charge (a.u.)
  ----------------------------------------
      1 O                    -0.214759
      2 C                     0.213004
      3 C                    -0.081426
      4 C                    -0.079913
      5 C                     0.217500
      6 O                    -0.198764
      7 C                    -0.073097
      8 C                    -0.047459
      9 O                    -0.173262
     10 C                     0.219176
     11 C                    -0.079303
     12 C                    -0.078633
     13 C                     0.210949
     14 O                    -0.208914
     15 O                    -0.167976
     16 O                    -0.168805
     17 O                    -0.207634
     18 C                    -0.127823
     19 C                     0.025274
     20 C                    -0.144114
     21 C                    -0.143930
     22 C                     0.023403
     23 O                    -0.187425
     24 H                     0.085981
     25 H                     0.084060
     26 H                     0.079802
     27 H                     0.077390
     28 H                     0.073897
     29 H                     0.077611
     30 H                     0.073244
     31 H                     0.093078
     32 O                    -0.181731
     33 C                    -0.129665
     34 C                     0.025098
     35 C                    -0.142904
     36 C                    -0.145020
     37 C                     0.025695
     38 O                    -0.184821
     39 H                     0.086105
     40 H                     0.085461
     41 H                     0.089307
     42 H                     0.087897
     43 H                     0.078031
     44 H                     0.072756
     45 H                     0.078316
     46 H                     0.073831
     47 H                     0.084241
     48 H                     0.090988
     49 H                     0.093773
     50 H                     0.089370
     51 H                     0.098228
     52 H                     0.087811
     53 H                     0.076171
     54 H                     0.096548
     55 H                     0.086307
     56 H                     0.107078
  ----------------------------------------
  Sum of atomic charges =     0.000000

                    Cartesian Multipole Moments
 -----------------------------------------------------------------
    Charge (ESU x 10^10)
                 0.0000
    Dipole Moment (Debye)
         X      -0.6067      Y      -0.7554      Z      -1.6571
       Tot       1.9196
    Quadrupole Moments (Debye-Ang)
        XX    -137.8355     XY       6.2914     YY    -152.2239
        XZ     -12.6481     YZ      -0.9346     ZZ    -161.7903

 Total job time:  74.98s(wall), 3571.53s(cpu)
        *  Thank you very much for using Q-Chem.  Have a nice day.  *
