 Q-Chem 5.0, Q-Chem, Inc., Pleasanton, CA (2017)
 Q-Chem 5.0.1 for Intel X86 EM64T Linux

User input:
--------------------------------------------------------------
$molecule
0  1
O 3.2052552738 -2.5123873542 -0.7286153396
C 3.2635857451 -1.4172489087 -1.3318961278
C 4.1667808626 -0.1855428618 -1.016140269
C 3.4913181258 1.0723788126 -0.3167131027
C 2.0654092844 0.9932198969 0.3740899363
O 1.8048783385 -0.1138866315 1.2738618733
C 0.9406741978 -1.1441303282 0.6566207644
C -0.044553807 -1.6987991264 1.7529124504
O -1.3011526021 -0.9325568184 1.9702471837
C -1.9996629663 -0.5830349929 0.7683577657
C -3.5461248816 -0.7087128272 1.0275853102
C -4.3545267765 0.6282208791 0.7430341081
C -3.3992668112 1.8390583637 0.4368153338
O -2.3893452197 2.155272783 1.1036419025
O 2.4720016842 -1.0911365577 -2.4779305992
O -3.8554496353 2.5553221307 -0.7117486114
O -1.4913278997 -0.3027692147 -0.3446769605
C -2.9270292035 3.6721551812 -1.0053621911
C -4.1956176962 -1.6732479625 -0.0578263107
C -5.6561267782 -2.0476343776 0.4162430429
C -6.4343437443 -0.7204204194 0.0838071661
C -5.2676566878 0.1839038352 -0.4753884908
O -4.4165722097 -0.7779435571 -1.2148461177
H -3.7015323263 -1.0720113402 2.0579648125
H -4.9673476523 0.9007985233 1.6224697454
H -3.5610985069 -2.5324194963 -0.3502731074
H -6.0424193383 -2.900062756 -0.1648617614
H -5.6903810804 -2.3049162479 1.4868995291
H -7.1958082481 -0.8861888867 -0.6947336825
H -6.922163174 -0.2782873552 0.9672940315
H -5.5755090582 1.0164992353 -1.136193296
O 1.2294193774 1.9118594905 0.2188658727
C 1.5750840502 -2.2163073596 -2.8320000325
C 5.3535846568 -0.5166945718 -0.0117853076
C 6.5341272094 0.4770641614 -0.3369332692
C 5.9269931258 1.8290331164 0.1930800039
C 4.5689678632 1.3318781858 0.8344812459
O 4.869081951 -0.0391198935 1.3018685947
H 4.5717832431 0.1525123844 -1.9877508955
H 3.4342069211 1.9215918682 -1.0208048351
H 0.7571930508 -2.3296145885 -2.0919205246
H 5.6187471613 -1.5905520139 0.0393518307
H 7.438632413 0.1954198396 0.225713686
H 6.7783258158 0.5069100017 -1.4108099425
H 6.5694577683 2.2912165764 0.959034958
H 5.7555393108 2.5619329562 -0.6115335001
H 4.1959673352 1.9530850278 1.6720567869
H 2.1289691419 -3.1743404894 -2.8989207115
H 1.1416203927 -1.9631632836 -3.8168491865
H -3.286808892 4.1272827311 -1.9463871822
H -1.887083627 3.3098107846 -1.1357564566
H -2.936225397 4.4326267301 -0.1976631565
H -0.3168502943 -2.7438369812 1.4790599266
H 0.4592183856 -1.7165290911 2.7414024124
H 1.570163402 -1.9918910819 0.3067986866
H 0.3054730485 -0.7452766761 -0.1674408377
$end

$rem
JOBTYPE                   OPT
METHOD                    B3LYP
DFT_D                     d3_op
BASIS                     STO-3G
GEOM_OPT_MAX_CYCLES       100
GEOM_OPT_TOL_GRADIENT     300
GEOM_OPT_TOL_DISPLACEMENT 1200
GEOM_OPT_TOL_ENERGY       100
SYMMETRY                  False
THRESH                    12
SCF_CONVERGENCE           8
MAX_SUB_FILE_NUM          128
MEM_STATIC                400
MEM_TOTAL                 4000
$end
--------------------------------------------------------------

   16   -1510.2432991857      5.68E-09 Convergence criterion met
 Total energy in the final basis set = -1510.24329919
   14   -1510.2482406609      6.54E-09 Convergence criterion met
 Total energy in the final basis set = -1510.24824066
   14   -1510.2541754653      7.37E-09 Convergence criterion met
 Total energy in the final basis set = -1510.25417547
   14   -1510.2600118371      4.75E-09 Convergence criterion met
 Total energy in the final basis set = -1510.26001184
   15   -1510.2664002965      2.46E-09 Convergence criterion met
 Total energy in the final basis set = -1510.26640030
   14   -1510.2722475661      7.57E-09 Convergence criterion met
 Total energy in the final basis set = -1510.27224757
   14   -1510.2774756023      4.43E-09 Convergence criterion met
 Total energy in the final basis set = -1510.27747560
   14   -1510.2816666156      3.32E-09 Convergence criterion met
   12   -1510.2954673316      7.60E-09 Convergence criterion met
 Total energy in the final basis set = -1510.29546733
   11   -1510.2954719008      5.40E-09 Convergence criterion met
 Total energy in the final basis set = -1510.29547190
   11   -1510.2954697686      6.65E-09 Convergence criterion met
 Total energy in the final basis set = -1510.29546977
   11   -1510.2954759629      5.41E-09 Convergence criterion met
 Total energy in the final basis set = -1510.29547596
    9   -1510.2954746390      5.12E-09 Convergence criterion met
 Total energy in the final basis set = -1510.29547464
    9   -1510.2954756602      5.54E-09 Convergence criterion met
 Total energy in the final basis set = -1510.29547566

             Standard Nuclear Orientation (Angstroms)
    I     Atom           X                Y                Z
 ----------------------------------------------------------------
    1      O      -4.6683179482    -2.1705538630     0.6035223186
    2      C      -4.0925252955    -1.2553354955     1.2272608339
    3      C      -3.9574140316     0.2531927004     0.8174548206
    4      C      -2.4662509535     0.7930663048     0.8497780490
    5      C      -1.4096438144    -0.2810130958     1.2635102565
    6      O      -1.5359392967    -1.4069086863     0.3928398712
    7      C      -0.5159359377    -2.4303535355     0.7154377197
    8      C       0.2202761747    -2.8894306907    -0.5918428148
    9      O       1.0953655989    -1.8632943403    -1.2086366510
   10      C       2.2908285070    -1.6849194076    -0.4385579582
   11      C       3.2617363174    -0.7407728265    -1.2328647757
   12      C       3.0400569390     0.8181759918    -0.9983729086
   13      C       1.8152009796     1.1423612601    -0.0686579651
   14      O       0.6300878638     0.8082071131    -0.2972166345
   15      O      -3.4541850805    -1.4257228131     2.5019808935
   16      O       2.2311379742     1.8880234419     1.0676332014
   17      O       2.5120043356    -2.2520271886     0.6536630777
   18      C       1.0637543346     2.2216378954     1.9254213479
   19      C       4.7517717375    -0.9051553886    -0.7119809296
   20      C       5.7285445936    -0.2935156773    -1.7912949928
   21      C       5.5060301263     1.2474048801    -1.5624135021
   22      C       4.4440070379     1.2330001798    -0.3926059415
   23      O       4.8309016765     0.0529519300     0.4143070569
   24      H       3.1673484151    -0.9855228007    -2.3060348819
   25      H       2.8542057633     1.3189784650    -1.9666554551
   26      H       4.9996002840    -1.9269152863    -0.3650691460
   27      H       6.7686693965    -0.5878923891    -1.5787458213
   28      H       5.4728771769    -0.6152784519    -2.8136902696
   29      H       6.4324637843     1.7441031467    -1.2332086024
   30      H       5.1296019129     1.7624772606    -2.4607128416
   31      H       4.4130967306     2.1415545474     0.2377328779
   32      O      -0.5520907262    -0.1955191630     2.1764468709
   33      C      -3.5484694207    -2.8378979803     2.9346008668
   34      C      -4.3293862619     0.4730446647    -0.7072821009
   35      C      -4.5646668081     2.0160953397    -0.9461978218
   36      C      -3.0859497818     2.5558293333    -0.9123153442
   37      C      -2.2770587930     1.2217638275    -0.6718006409
   38      O      -3.0543972646     0.2036092171    -1.4114292301
   39      H      -4.6023661987     0.8515251273     1.4875921777
   40      H      -2.3602240745     1.6506026358     1.5363260387
   41      H      -3.2166065396    -3.5325393239     2.1370081900
   42      H      -5.1263849034    -0.2026646214    -1.0745635699
   43      H      -5.0336915448     2.1861427465    -1.9283229464
   44      H      -5.2017368135     2.4664673759    -0.1682865414
   45      H      -2.7999184416     3.0094158681    -1.8745521869
   46      H      -2.9189921664     3.2932057423    -0.1110818276
   47      H      -1.2118007357     1.2208071048    -0.9823339561
   48      H      -4.5867165339    -3.1051270423     3.2208864352
   49      H      -2.8874998384    -2.9353548780     3.8154515329
   50      H       1.4885399283     2.6360372965     2.8573452586
   51      H       0.4396077858     1.3184594825     2.1433618063
   52      H       0.4318617288     2.9918705080     1.4374754249
   53      H       0.8077103431    -3.8022739074    -0.3485501570
   54      H      -0.5296848494    -3.1336298682    -1.3715076948
   55      H      -1.0255724717    -3.3140480709     1.1565529417
   56      H       0.1981826860    -2.0132348249     1.4577288996
 ----------------------------------------------------------------

    9   -1510.2954761751      3.74E-09 Convergence criterion met
 Total energy in the final basis set = -1510.29547618
 Final energy is   -1510.29547617510
 **  OPTIMIZATION CONVERGED  **

                    Orbital Energies (a.u.)
 --------------------------------------------------------------

 Alpha MOs
 -- Occupied --
-18.934 -18.934 -18.932 -18.932 -18.884 -18.880 -18.876 -18.875
-18.873 -18.870 -10.103 -10.100 -10.098 -10.097 -10.072 -10.065
-10.064 -10.056 -10.055 -10.053 -10.046 -10.041 -10.037 -10.035
-10.035 -10.033 -10.018 -10.017 -10.016 -10.014  -1.017  -1.011
 -1.007  -1.005  -0.966  -0.962  -0.938  -0.935  -0.933  -0.931
 -0.761  -0.759  -0.725  -0.720  -0.710  -0.701  -0.693  -0.662
 -0.651  -0.614  -0.595  -0.580  -0.545  -0.539  -0.534  -0.531
 -0.511  -0.508  -0.484  -0.469  -0.463  -0.457  -0.445  -0.441
 -0.430  -0.429  -0.424  -0.415  -0.411  -0.407  -0.405  -0.400
 -0.394  -0.375  -0.374  -0.370  -0.361  -0.353  -0.351  -0.348
 -0.345  -0.342  -0.333  -0.328  -0.324  -0.322  -0.317  -0.308
 -0.304  -0.302  -0.301  -0.294  -0.287  -0.286  -0.280  -0.275
 -0.270  -0.253  -0.251  -0.247  -0.241  -0.230  -0.226  -0.185
 -0.177  -0.172  -0.167  -0.157  -0.154  -0.150  -0.147  -0.140
 -0.137

          Ground-State Mulliken Net Atomic Charges

     Atom                 Charge (a.u.)
  ----------------------------------------
      1 O                    -0.210790
      2 C                     0.215094
      3 C                    -0.078294
      4 C                    -0.077226
      5 C                     0.232244
      6 O                    -0.166374
      7 C                    -0.054638
      8 C                    -0.046686
      9 O                    -0.165376
     10 C                     0.206837
     11 C                    -0.078664
     12 C                    -0.077745
     13 C                     0.211678
     14 O                    -0.224980
     15 O                    -0.174020
     16 O                    -0.166115
     17 O                    -0.213014
     18 C                    -0.145852
     19 C                     0.025101
     20 C                    -0.144284
     21 C                    -0.144379
     22 C                     0.023523
     23 O                    -0.187088
     24 H                     0.085317
     25 H                     0.084313
     26 H                     0.086248
     27 H                     0.077650
     28 H                     0.072614
     29 H                     0.077534
     30 H                     0.072160
     31 H                     0.092173
     32 O                    -0.220716
     33 C                    -0.128641
     34 C                     0.024466
     35 C                    -0.144338
     36 C                    -0.144896
     37 C                     0.018986
     38 O                    -0.186756
     39 H                     0.083635
     40 H                     0.082691
     41 H                     0.089294
     42 H                     0.088308
     43 H                     0.076945
     44 H                     0.071387
     45 H                     0.076469
     46 H                     0.070900
     47 H                     0.104997
     48 H                     0.086849
     49 H                     0.091672
     50 H                     0.085059
     51 H                     0.116091
     52 H                     0.074178
     53 H                     0.088071
     54 H                     0.096553
     55 H                     0.081444
     56 H                     0.110386
  ----------------------------------------
  Sum of atomic charges =    -0.000000

                    Cartesian Multipole Moments
 -----------------------------------------------------------------
    Charge (ESU x 10^10)
                -0.0000
    Dipole Moment (Debye)
         X      -0.3040      Y       1.1097      Z      -0.7344
       Tot       1.3649
    Quadrupole Moments (Debye-Ang)
        XX    -156.9109     XY      -3.2926     YY    -148.1356
        XZ     -16.8271     YZ      -2.1686     ZZ    -159.8010

 Total job time:  102.09s(wall), 4863.13s(cpu)
        *  Thank you very much for using Q-Chem.  Have a nice day.  *
