 Q-Chem 5.0, Q-Chem, Inc., Pleasanton, CA (2017)
 Q-Chem 5.0.1 for Intel X86 EM64T Linux

User input:
--------------------------------------------------------------
$molecule
0  1
O -3.94934 -3.66094 2.70899
C -3.26408 -4.56952 2.26188
C -3.36658 -6.02376 2.66595
C -2.57813 -6.46456 3.91009
C -1.91791 -5.36653 4.71416
O -1.99109 -4.18477 4.03334
C -1.04612 -3.21174 4.49104
C -1.74802 -2.15502 5.33768
O -3.17177 -2.31995 5.24481
C -3.7612 -1.71281 4.18504
C -4.49837 -0.45077 4.56516
C -5.93769 -0.66471 5.05594
C -6.30331 -2.08669 5.43141
O -6.10556 -2.60533 6.52067
O -2.51279 -4.34104 1.1503
O -7.02325 -2.77051 4.50369
O -3.13437 -1.5511 3.14195
C -7.58219 -4.01328 4.7131
C -3.93521 0.34325 5.77609
C -4.3728 1.80688 5.69141
C -5.84735 1.68121 6.00429
C -5.92635 0.18832 6.33665
O -4.66735 -0.11359 6.88486
H -4.47167 0.24956 3.69529
H -6.69031 -0.31403 4.3146
H -2.83488 0.31634 5.8737
H -3.87823 2.34063 6.53508
H -4.13098 2.33117 4.74197
H -6.07114 2.30142 6.90055
H -6.53466 1.94862 5.17256
H -6.80531 -0.01894 6.98671
O -1.31787 -5.54609 5.76725
C -2.33078 -3.11584 0.54609
C -4.79706 -6.39452 3.10165
C -5.01259 -7.90278 2.98138
C -4.18414 -8.39951 4.14732
C -3.71909 -7.06859 4.74585
O -4.79026 -6.19493 4.49348
H -3.08689 -6.63406 1.77693
H -1.78835 -7.2126 3.67752
H -1.79628 -2.42634 1.22954
H -5.5816 -5.84965 2.53141
H -6.08565 -8.10589 3.19903
H -4.74933 -8.33401 1.99164
H -4.86015 -8.92092 4.86126
H -3.33289 -9.06198 3.87902
H -3.44165 -7.20434 5.81454
H -3.30933 -2.68366 0.24658
H -1.7073 -3.25045 -0.36132
H -8.09188 -4.34513 3.78548
H -8.32808 -3.96185 5.53459
H -6.79678 -4.74879 4.97463
H -1.5118 -2.42603 6.38829
H -1.35561 -1.1279 5.18443
H -0.70278 -2.70306 3.56596
H -0.10942 -3.59812 4.95534
$end

$opt
CONSTRAINT
tors           1           2           3           4     -85.263
tors           3           4           5           6      -9.474
tors           4           5           6           7    -161.053
tors           5           6           7           8    -104.211
tors           6           7           8           9      -9.474
tors           7           8           9          10     -85.263
tors           8           9          10          11    -104.211
tors           9          10          11          12     -85.263
tors          11          12          13          14     +85.263
ENDCONSTRAINT
$end

$rem
JOBTYPE                   OPT
METHOD                    B3LYP
DFT_D                     d3_op
BASIS                     STO-3G
GEOM_OPT_MAX_CYCLES       100
GEOM_OPT_TOL_GRADIENT     300
GEOM_OPT_TOL_DISPLACEMENT 1200
GEOM_OPT_TOL_ENERGY       100
SYMMETRY                  False
THRESH                    12
SCF_CONVERGENCE           8
MAX_SUB_FILE_NUM          128
MEM_STATIC                400
MEM_TOTAL                 4000
$end
--------------------------------------------------------------

   15   -1510.0842016860      9.00E-09 Convergence criterion met
 Total energy in the final basis set = -1510.08420169
   15   -1510.1493139595      4.30E-09 Convergence criterion met
 Total energy in the final basis set = -1510.14931396
   14   -1510.2013168737      2.43E-09 Convergence criterion met
 Total energy in the final basis set = -1510.20131687
   14   -1510.2273853685      3.39E-09 Convergence criterion met
 Total energy in the final basis set = -1510.22738537
   14   -1510.2400730728      5.56E-09 Convergence criterion met
 Total energy in the final basis set = -1510.24007307
   14   -1510.2472896540      8.00E-09 Convergence criterion met
 Total energy in the final basis set = -1510.24728965
   14   -1510.2523430157      3.04E-09 Convergence criterion met
 Total energy in the final basis set = -1510.25234302
   13   -1510.2551135822      3.12E-09 Convergence criterion met
   10   -1510.2600096966      7.81E-09 Convergence criterion met
 Total energy in the final basis set = -1510.26000970
   10   -1510.2600092700      7.81E-09 Convergence criterion met
 Total energy in the final basis set = -1510.26000927
    9   -1510.2600076521      8.99E-09 Convergence criterion met
 Total energy in the final basis set = -1510.26000765
    9   -1510.2600054149      5.47E-09 Convergence criterion met
 Total energy in the final basis set = -1510.26000541
    9   -1510.2600062159      6.03E-09 Convergence criterion met
 Total energy in the final basis set = -1510.26000622
    9   -1510.2600076475      9.16E-09 Convergence criterion met
 Total energy in the final basis set = -1510.26000765

             Standard Nuclear Orientation (Angstroms)
    I     Atom           X                Y                Z
 ----------------------------------------------------------------
    1      O       1.2697675050     0.2409820823     1.7235900212
    2      C       2.3311109600    -0.4030421998     1.5694896586
    3      C       3.5923551241     0.0127836077     0.7422394463
    4      C       3.5652373721    -0.3233886109    -0.8079254547
    5      C       2.3286159271    -1.0429354044    -1.4581978200
    6      O       1.3696847438    -1.5408580578    -0.5132179022
    7      C       0.5186415556    -2.5668640741    -1.1698955511
    8      C      -0.9290286615    -2.0000852776    -1.5213756175
    9      O      -1.1911141696    -0.6753089581    -0.9310681758
   10      C      -1.6819406960    -0.8234121402     0.4319264353
   11      C      -3.2347321092    -0.5783263763     0.5543705304
   12      C      -3.5886041390     0.9687064976     0.7250340064
   13      C      -2.3381165805     1.8726390117     0.4206044409
   14      O      -1.9647857787     2.2801531308    -0.7015654758
   15      O       2.6013643608    -1.6711196191     2.1647598425
   16      O      -1.6393754285     2.0881122930     1.6455154407
   17      O      -0.9687642540    -1.1687979993     1.3959988103
   18      C      -0.3138780291     2.7121186898     1.3868413774
   19      C      -4.1000745925    -0.9433872758    -0.7260722887
   20      C      -5.5964763354    -1.1139618913    -0.2464162038
   21      C      -5.9965822213     0.3838782640     0.0234175338
   22      C      -4.6785181592     1.1397066719    -0.4106118108
   23      O      -4.1379580788     0.3080334588    -1.5126024462
   24      H      -3.5724864003    -1.1415641939     1.4431081133
   25      H      -3.9709162559     1.1857350873     1.7377969712
   26      H      -3.7086567234    -1.7739768729    -1.3416730132
   27      H      -6.2061600163    -1.5553708442    -1.0508317852
   28      H      -5.6807009559    -1.7480630882     0.6506478645
   29      H      -6.8468127964     0.6951965269    -0.6038131469
   30      H      -6.2494799040     0.5704361615     1.0793783647
   31      H      -4.8183135762     2.1828676102    -0.7535824530
   32      O       2.2288132561    -1.2368588833    -2.6914418929
   33      C       1.4133988604    -2.1523526613     2.9123586997
   34      C       3.7414031773     1.5949044114     0.6998453913
   35      C       5.2269542180     1.9479630649     0.2985039192
   36      C       5.2092795095     1.6185509969    -1.2402820778
   37      C       3.7185187644     1.1350702930    -1.4307607970
   38      O       2.9525658141     1.9830952038    -0.4909973728
   39      H       4.4688157441    -0.4672768776     1.2123062744
   40      H       4.4392189869    -0.9483389774    -1.0707894696
   41      H       0.4789701075    -1.9015482156     2.3650799115
   42      H       3.3561902823     2.1109283459     1.6003831797
   43      H       5.4348455588     3.0140174056     0.4821036150
   44      H       5.9608587152     1.3431400477     0.8547701651
   45      H       5.4003424924     2.5174857286    -1.8478607211
   46      H       5.9381940516     0.8410783092    -1.5198579530
   47      H       3.3181898527     1.2241415118    -2.4596469444
   48      H       1.3768716125    -1.6958504978     3.9226558493
   49      H       1.5347701514    -3.2464828421     3.0133905934
   50      H      -0.1404118160     3.4616334137     2.1812145464
   51      H      -0.3102957268     3.1952493240     0.3904220247
   52      H       0.4619100759     1.9107378072     1.4282373813
   53      H      -0.9936832475    -1.8336639544    -2.6165897976
   54      H      -1.6927759398    -2.7552204427    -1.2359420542
   55      H       0.4355887540    -3.3946029975    -0.4360544700
   56      H       1.0096535095    -2.9227387310    -2.0986856224
 ----------------------------------------------------------------

    9   -1510.2600085318      4.00E-09 Convergence criterion met
 Total energy in the final basis set = -1510.26000853
 Final energy is   -1510.26000853178
 **  OPTIMIZATION CONVERGED  **

                    Orbital Energies (a.u.)
 --------------------------------------------------------------

 Alpha MOs
 -- Occupied --
-18.938 -18.923 -18.912 -18.911 -18.907 -18.886 -18.886 -18.874
-18.869 -18.858 -10.113 -10.101 -10.096 -10.081 -10.075 -10.069
-10.060 -10.057 -10.057 -10.055 -10.040 -10.039 -10.036 -10.034
-10.031 -10.022 -10.020 -10.019 -10.018 -10.018  -1.016  -1.008
 -1.000  -0.991  -0.969  -0.967  -0.943  -0.933  -0.926  -0.916
 -0.761  -0.759  -0.724  -0.719  -0.707  -0.702  -0.697  -0.651
 -0.638  -0.609  -0.594  -0.584  -0.545  -0.541  -0.536  -0.534
 -0.514  -0.506  -0.480  -0.470  -0.457  -0.453  -0.449  -0.439
 -0.435  -0.428  -0.425  -0.411  -0.406  -0.398  -0.398  -0.394
 -0.392  -0.380  -0.373  -0.362  -0.358  -0.355  -0.348  -0.343
 -0.338  -0.335  -0.329  -0.327  -0.326  -0.322  -0.319  -0.311
 -0.308  -0.305  -0.303  -0.298  -0.295  -0.287  -0.273  -0.270
 -0.267  -0.245  -0.241  -0.237  -0.232  -0.231  -0.229  -0.181
 -0.170  -0.159  -0.158  -0.157  -0.154  -0.143  -0.142  -0.140
 -0.136

          Ground-State Mulliken Net Atomic Charges

     Atom                 Charge (a.u.)
  ----------------------------------------
      1 O                    -0.210583
      2 C                     0.223543
      3 C                    -0.081212
      4 C                    -0.076900
      5 C                     0.212255
      6 O                    -0.162616
      7 C                    -0.054114
      8 C                    -0.046282
      9 O                    -0.181324
     10 C                     0.227621
     11 C                    -0.081098
     12 C                    -0.076786
     13 C                     0.202442
     14 O                    -0.208256
     15 O                    -0.172487
     16 O                    -0.174241
     17 O                    -0.175561
     18 C                    -0.151312
     19 C                     0.024715
     20 C                    -0.143303
     21 C                    -0.144860
     22 C                     0.026006
     23 O                    -0.182254
     24 H                     0.082639
     25 H                     0.085580
     26 H                     0.078880
     27 H                     0.077347
     28 H                     0.072130
     29 H                     0.077794
     30 H                     0.073476
     31 H                     0.086918
     32 O                    -0.216191
     33 C                    -0.145033
     34 C                     0.025221
     35 C                    -0.144279
     36 C                    -0.143990
     37 C                     0.026070
     38 O                    -0.187007
     39 H                     0.084956
     40 H                     0.086476
     41 H                     0.119350
     42 H                     0.084217
     43 H                     0.077888
     44 H                     0.072974
     45 H                     0.078760
     46 H                     0.073271
     47 H                     0.089486
     48 H                     0.077836
     49 H                     0.079127
     50 H                     0.075065
     51 H                     0.093744
     52 H                     0.114197
     53 H                     0.094567
     54 H                     0.074618
     55 H                     0.083092
     56 H                     0.097427
  ----------------------------------------
  Sum of atomic charges =    -0.000000

                    Cartesian Multipole Moments
 -----------------------------------------------------------------
    Charge (ESU x 10^10)
                -0.0000
    Dipole Moment (Debye)
         X       0.2143      Y      -2.9394      Z       1.6443
       Tot       3.3749
    Quadrupole Moments (Debye-Ang)
        XX    -135.6440     XY       7.1090     YY    -153.1135
        XZ      -3.1185     YZ       4.2024     ZZ    -165.7588

 Total job time:  118.78s(wall), 5665.47s(cpu)
        *  Thank you very much for using Q-Chem.  Have a nice day.  *
