 Q-Chem 5.0, Q-Chem, Inc., Pleasanton, CA (2017)
 Q-Chem 5.0.1 for Intel X86 EM64T Linux

User input:
--------------------------------------------------------------
$molecule
0  1
O 1.269767505 0.2409820823 1.7235900212
C 2.33111096 -0.4030421998 1.5694896586
C 3.5923551241 0.0127836077 0.7422394463
C 3.5652373721 -0.3233886109 -0.8079254547
C 2.3286159271 -1.0429354044 -1.45819782
O 1.3696847438 -1.5408580578 -0.5132179022
C 0.5186415556 -2.5668640741 -1.1698955511
C -0.9290286615 -2.0000852776 -1.5213756175
O -1.1911141696 -0.6753089581 -0.9310681758
C -1.681940696 -0.8234121402 0.4319264353
C -3.2347321092 -0.5783263763 0.5543705304
C -3.588604139 0.9687064976 0.7250340064
C -2.3381165805 1.8726390117 0.4206044409
O -1.9647857787 2.2801531308 -0.7015654758
O 2.6013643608 -1.6711196191 2.1647598425
O -1.6393754285 2.088112293 1.6455154407
O -0.968764254 -1.1687979993 1.3959988103
C -0.3138780291 2.7121186898 1.3868413774
C -4.1000745925 -0.9433872758 -0.7260722887
C -5.5964763354 -1.1139618913 -0.2464162038
C -5.9965822213 0.383878264 0.0234175338
C -4.6785181592 1.1397066719 -0.4106118108
O -4.1379580788 0.3080334588 -1.5126024462
H -3.5724864003 -1.1415641939 1.4431081133
H -3.9709162559 1.1857350873 1.7377969712
H -3.7086567234 -1.7739768729 -1.3416730132
H -6.2061600163 -1.5553708442 -1.0508317852
H -5.6807009559 -1.7480630882 0.6506478645
H -6.8468127964 0.6951965269 -0.6038131469
H -6.249479904 0.5704361615 1.0793783647
H -4.8183135762 2.1828676102 -0.753582453
O 2.2288132561 -1.2368588833 -2.6914418929
C 1.4133988604 -2.1523526613 2.9123586997
C 3.7414031773 1.5949044114 0.6998453913
C 5.226954218 1.9479630649 0.2985039192
C 5.2092795095 1.6185509969 -1.2402820778
C 3.7185187644 1.135070293 -1.430760797
O 2.9525658141 1.9830952038 -0.4909973728
H 4.4688157441 -0.4672768776 1.2123062744
H 4.4392189869 -0.9483389774 -1.0707894696
H 0.4789701075 -1.9015482156 2.3650799115
H 3.3561902823 2.1109283459 1.6003831797
H 5.4348455588 3.0140174056 0.482103615
H 5.9608587152 1.3431400477 0.8547701651
H 5.4003424924 2.5174857286 -1.8478607211
H 5.9381940516 0.8410783092 -1.519857953
H 3.3181898527 1.2241415118 -2.4596469444
H 1.3768716125 -1.6958504978 3.9226558493
H 1.5347701514 -3.2464828421 3.0133905934
H -0.140411816 3.4616334137 2.1812145464
H -0.3102957268 3.195249324 0.3904220247
H 0.4619100759 1.9107378072 1.4282373813
H -0.9936832475 -1.8336639544 -2.6165897976
H -1.6927759398 -2.7552204427 -1.2359420542
H 0.435588754 -3.3946029975 -0.43605447
H 1.0096535095 -2.922738731 -2.0986856224
$end

$rem
JOBTYPE                   OPT
METHOD                    B3LYP
DFT_D                     d3_op
BASIS                     STO-3G
GEOM_OPT_MAX_CYCLES       100
GEOM_OPT_TOL_GRADIENT     300
GEOM_OPT_TOL_DISPLACEMENT 1200
GEOM_OPT_TOL_ENERGY       100
SYMMETRY                  False
THRESH                    12
SCF_CONVERGENCE           8
MAX_SUB_FILE_NUM          128
MEM_STATIC                400
MEM_TOTAL                 4000
$end
--------------------------------------------------------------

   16   -1510.2600167918      4.10E-09 Convergence criterion met
 Total energy in the final basis set = -1510.26001679
   15   -1510.2375407829      3.34E-09 Convergence criterion met
 Total energy in the final basis set = -1510.23754078
   15   -1510.2626340929      4.38E-09 Convergence criterion met
 Total energy in the final basis set = -1510.26263409
   15   -1510.2618860314      3.21E-09 Convergence criterion met
 Total energy in the final basis set = -1510.26188603
   15   -1510.2444485673      3.16E-09 Convergence criterion met
 Total energy in the final basis set = -1510.24444857
   15   -1510.2683827600      5.30E-09 Convergence criterion met
 Total energy in the final basis set = -1510.26838276
   14   -1510.2705918672      4.96E-09 Convergence criterion met
 Total energy in the final basis set = -1510.27059187
   14   -1510.2720993012      4.89E-09 Convergence criterion met
   11   -1510.3009558064      4.91E-09 Convergence criterion met
 Total energy in the final basis set = -1510.30095581
   10   -1510.3009614015      6.92E-09 Convergence criterion met
 Total energy in the final basis set = -1510.30096140
   10   -1510.3009772916      6.92E-09 Convergence criterion met
 Total energy in the final basis set = -1510.30097729
   10   -1510.3009854564      6.50E-09 Convergence criterion met
 Total energy in the final basis set = -1510.30098546
    9   -1510.3009907939      6.58E-09 Convergence criterion met
 Total energy in the final basis set = -1510.30099079
    9   -1510.3009929292      5.70E-09 Convergence criterion met
 Total energy in the final basis set = -1510.30099293

             Standard Nuclear Orientation (Angstroms)
    I     Atom           X                Y                Z
 ----------------------------------------------------------------
    1      O      -2.9746819629     0.2130335542    -2.7547756738
    2      C      -3.4224398488    -0.3920945962    -1.7584895335
    3      C      -3.8210326582     0.2143935567    -0.3654731204
    4      C      -2.9865902650    -0.3821950472     0.8471491721
    5      C      -2.0556975662    -1.5764827241     0.4551123795
    6      O      -1.1520909646    -1.1396601025    -0.5667924690
    7      C      -0.3017206951    -2.2610341340    -1.0267049420
    8      C       0.8381314129    -2.6293272926    -0.0092599196
    9      O       1.7489171215    -1.4972534473     0.2669264304
   10      C       2.7822901800    -1.4311322532    -0.7264237857
   11      C       3.8063957152    -0.3303147600    -0.2987749548
   12      C       3.1517341463     1.0681089598     0.0559715438
   13      C       1.6044293799     1.1713831024    -0.2066417795
   14      O       0.7333595072     1.5080921103     0.6229749737
   15      O      -3.6899668557    -1.8006963175    -1.7220665143
   16      O       1.3852505722     0.8838490558    -1.5869089643
   17      O       2.8527289314    -2.1933549300    -1.7150509723
   18      C      -0.0033010044     1.2033240773    -2.0075960208
   19      C       4.4736800196    -0.6940646558     1.1018321045
   20      C       5.7217687199     0.2507009345     1.3259269421
   21      C       5.0169113559     1.6015662409     1.7238988853
   22      C       3.4978637329     1.1945980580     1.5955719365
   23      O       3.4802953622    -0.2053109119     2.0820891103
   24      H       4.5575106129    -0.2379930824    -1.1024430864
   25      H       3.6402524660     1.8702499745    -0.5274109541
   26      H       4.6687329409    -1.7740423670     1.2509915741
   27      H       6.3533544040    -0.1337878941     2.1424481172
   28      H       6.3376693228     0.3437526169     0.4171402117
   29      H       5.2539785917     1.8892986915     2.7606523409
   30      H       5.2836162244     2.4354919630     1.0551662153
   31      H       2.7761796698     1.8107568853     2.1664665524
   32      O      -2.0702437076    -2.7301349774     0.9368687502
   33      C      -3.3299948924    -2.4194222696    -3.0179663104
   34      C      -3.4186962407     1.7402880596    -0.2954010232
   35      C      -4.0947509721     2.3924199146     0.9719923339
   36      C      -3.1901395385     1.8264891083     2.1312279620
   37      C      -2.1895811748     0.9136866876     1.3215728351
   38      O      -1.9851145710     1.6848607556     0.0748395897
   39      H      -4.9046116863     0.0591199732    -0.2110859978
   40      H      -3.6582403431    -0.7478965981     1.6433512181
   41      H      -2.3035713554    -2.1428857403    -3.3323325459
   42      H      -3.5472768210     2.2846233649    -1.2510398273
   43      H      -4.0414730852     3.4911796493     0.9166081365
   44      H      -5.1502886368     2.0936987986     1.0741161312
   45      H      -2.6405469874     2.6326041525     2.6429437848
   46      H      -3.7640313837     1.2573552136     2.8798305269
   47      H      -1.2105699787     0.7184621480     1.8007659020
   48      H      -4.0349746465    -2.1175255854    -3.8198063723
   49      H      -3.3938991272    -3.5125426223    -2.8654246035
   50      H       0.0130269269     2.1538203606    -2.5787779379
   51      H      -0.7036483359     1.2987995050    -1.1398893507
   52      H      -0.3448078669     0.3955918558    -2.6809960966
   53      H       0.3877203672    -2.9090685301     0.9639156692
   54      H       1.4020262584    -3.4915693683    -0.4259068294
   55      H       0.1454298897    -1.9231425884    -1.9827001253
   56      H      -0.9162529047    -3.1704578559    -1.2043338172
 ----------------------------------------------------------------

    9   -1510.3009931287      4.43E-09 Convergence criterion met
 Total energy in the final basis set = -1510.30099313
 Final energy is   -1510.30099312865
 **  OPTIMIZATION CONVERGED  **

                    Orbital Energies (a.u.)
 --------------------------------------------------------------

 Alpha MOs
 -- Occupied --
-18.936 -18.935 -18.930 -18.911 -18.901 -18.882 -18.879 -18.875
-18.870 -18.858 -10.103 -10.101 -10.095 -10.086 -10.072 -10.068
-10.067 -10.063 -10.061 -10.056 -10.051 -10.041 -10.039 -10.032
-10.027 -10.023 -10.021 -10.019 -10.017 -10.015  -1.019  -1.011
 -1.006  -0.990  -0.976  -0.964  -0.939  -0.939  -0.931  -0.919
 -0.767  -0.757  -0.728  -0.721  -0.711  -0.701  -0.694  -0.666
 -0.637  -0.615  -0.596  -0.582  -0.550  -0.540  -0.537  -0.531
 -0.515  -0.504  -0.484  -0.472  -0.461  -0.452  -0.445  -0.439
 -0.435  -0.427  -0.427  -0.419  -0.411  -0.405  -0.394  -0.392
 -0.385  -0.376  -0.371  -0.362  -0.359  -0.353  -0.351  -0.346
 -0.341  -0.337  -0.334  -0.332  -0.328  -0.326  -0.318  -0.310
 -0.306  -0.304  -0.299  -0.297  -0.294  -0.286  -0.283  -0.276
 -0.266  -0.257  -0.253  -0.247  -0.240  -0.229  -0.218  -0.187
 -0.180  -0.165  -0.159  -0.158  -0.153  -0.150  -0.147  -0.139
 -0.137

          Ground-State Mulliken Net Atomic Charges

     Atom                 Charge (a.u.)
  ----------------------------------------
      1 O                    -0.211699
      2 C                     0.214626
      3 C                    -0.078502
      4 C                    -0.080261
      5 C                     0.213475
      6 O                    -0.170688
      7 C                    -0.050208
      8 C                    -0.051851
      9 O                    -0.167739
     10 C                     0.211712
     11 C                    -0.078182
     12 C                    -0.078721
     13 C                     0.215820
     14 O                    -0.217347
     15 O                    -0.173719
     16 O                    -0.181518
     17 O                    -0.217823
     18 C                    -0.151033
     19 C                     0.025867
     20 C                    -0.144158
     21 C                    -0.143739
     22 C                     0.023975
     23 O                    -0.187139
     24 H                     0.084885
     25 H                     0.082271
     26 H                     0.080528
     27 H                     0.076974
     28 H                     0.073264
     29 H                     0.076707
     30 H                     0.072664
     31 H                     0.089190
     32 O                    -0.214636
     33 C                    -0.129328
     34 C                     0.025798
     35 C                    -0.143835
     36 C                    -0.142416
     37 C                     0.029063
     38 O                    -0.178524
     39 H                     0.086219
     40 H                     0.086489
     41 H                     0.090935
     42 H                     0.090943
     43 H                     0.079609
     44 H                     0.073778
     45 H                     0.081539
     46 H                     0.074678
     47 H                     0.101759
     48 H                     0.087528
     49 H                     0.090853
     50 H                     0.070749
     51 H                     0.126486
     52 H                     0.077501
     53 H                     0.098065
     54 H                     0.093041
     55 H                     0.095917
     56 H                     0.090158
  ----------------------------------------
  Sum of atomic charges =    -0.000000

                    Cartesian Multipole Moments
 -----------------------------------------------------------------
    Charge (ESU x 10^10)
                -0.0000
    Dipole Moment (Debye)
         X      -1.0356      Y       0.4762      Z       0.0290
       Tot       1.1402
    Quadrupole Moments (Debye-Ang)
        XX    -140.2906     XY       1.2293     YY    -157.6728
        XZ       2.3273     YZ       5.6069     ZZ    -163.1631

 Total job time:  174.11s(wall), 8312.85s(cpu)
        *  Thank you very much for using Q-Chem.  Have a nice day.  *
