 Q-Chem 5.0, Q-Chem, Inc., Pleasanton, CA (2017)
 Q-Chem 5.0.1 for Intel X86 EM64T Linux

User input:
--------------------------------------------------------------
$molecule
0  1
O -3.94934 -3.66094 2.70899
C -3.26408 -4.56952 2.26188
C -3.36658 -6.02376 2.66595
C -2.97353 -6.38153 4.10864
C -2.69204 -5.22192 5.03825
O -2.35789 -5.69066 6.27681
C -3.20279 -5.18639 7.31658
C -2.77046 -5.75149 8.66561
O -3.62124 -5.24243 9.7048
C -3.12293 -5.33262 10.96286
C -3.81151 -4.40581 11.93628
C -2.88095 -3.42607 12.66597
C -1.49467 -3.26671 12.07475
O -1.01798 -3.96088 11.18849
O -2.38547 -4.29066 1.26305
O -0.71637 -2.30199 12.6333
O -2.30962 -6.18298 11.30669
C 0.57262 -2.01538 12.23532
C -4.83672 -3.41389 11.33267
C -5.82432 -2.96806 12.41123
C -4.9395 -2.07777 13.25596
C -3.6497 -2.1113 12.4311
O -4.09451 -2.24331 11.10268
H -4.34648 -5.06847 12.65319
H -2.75085 -3.66704 13.74398
H -5.40623 -3.81396 10.46662
H -6.59095 -2.33226 11.91251
H -6.33273 -3.79056 12.95883
H -5.37332 -1.05299 13.25879
H -4.77195 -2.42367 14.29901
H -3.03656 -1.20935 12.6488
O -2.68562 -4.02726 4.79343
C -2.17686 -3.03157 0.74024
C -4.81977 -6.52746 2.63016
C -4.84277 -8.04696 2.47642
C -4.37254 -8.47554 3.85024
C -4.2581 -7.11416 4.54534
O -5.27559 -6.3461 3.94917
H -2.74932 -6.60525 1.94303
H -2.07685 -7.04081 4.13693
H -1.81557 -2.34305 1.53388
H -5.42712 -6.04981 1.82999
H -5.90686 -8.3522 2.35522
H -4.24759 -8.4419 1.62513
H -5.17809 -9.08113 4.32245
H -3.41406 -9.03797 3.87177
H -4.32954 -7.25488 5.64367
H -3.11874 -2.63823 0.30143
H -1.40884 -3.09166 -0.05789
H 0.96959 -1.18696 12.85707
H 0.58209 -1.69941 11.17016
H 1.22224 -2.90667 12.36888
H -2.80896 -6.86277 8.65647
H -1.71797 -5.4226 8.82719
H -4.26118 -5.47347 7.13134
H -3.13609 -4.07579 7.36404
$end

$opt
CONSTRAINT
tors           1           2           3           4     -66.316
tors           3           4           5           6    -180.000
tors           4           5           6           7    -123.158
tors           5           6           7           8    -180.000
tors           6           7           8           9    -180.000
tors           7           8           9          10    -161.053
tors           8           9          10          11    +161.053
tors           9          10          11          12    -123.158
tors          11          12          13          14      -9.474
ENDCONSTRAINT
$end

$rem
JOBTYPE                   OPT
METHOD                    B3LYP
DFT_D                     d3_op
BASIS                     STO-3G
GEOM_OPT_MAX_CYCLES       100
GEOM_OPT_TOL_GRADIENT     300
GEOM_OPT_TOL_DISPLACEMENT 1200
GEOM_OPT_TOL_ENERGY       100
SYMMETRY                  False
THRESH                    12
SCF_CONVERGENCE           8
MAX_SUB_FILE_NUM          128
MEM_STATIC                400
MEM_TOTAL                 4000
$end
--------------------------------------------------------------

   15   -1510.1313774885      6.59E-09 Convergence criterion met
 Total energy in the final basis set = -1510.13137749
   14   -1510.2019174350      3.96E-09 Convergence criterion met
 Total energy in the final basis set = -1510.20191743
   14   -1510.2390929522      6.14E-09 Convergence criterion met
 Total energy in the final basis set = -1510.23909295
   14   -1510.2536389873      5.99E-09 Convergence criterion met
 Total energy in the final basis set = -1510.25363899
   14   -1510.2568685543      5.53E-09 Convergence criterion met
 Total energy in the final basis set = -1510.25686855
   12   -1510.2581501307      6.64E-09 Convergence criterion met
 Total energy in the final basis set = -1510.25815013
   12   -1510.2589126205      8.97E-09 Convergence criterion met
 Total energy in the final basis set = -1510.25891262
   13   -1510.2595153861      3.66E-09 Convergence criterion met
   11   -1510.2613534672      6.81E-09 Convergence criterion met
 Total energy in the final basis set = -1510.26135347
   11   -1510.2614323070      7.80E-09 Convergence criterion met
 Total energy in the final basis set = -1510.26143231
   11   -1510.2614982155      7.48E-09 Convergence criterion met
 Total energy in the final basis set = -1510.26149822
   11   -1510.2615298323      5.42E-09 Convergence criterion met
 Total energy in the final basis set = -1510.26152983
   10   -1510.2615397830      9.53E-09 Convergence criterion met
 Total energy in the final basis set = -1510.26153978
    9   -1510.2615430532      8.67E-09 Convergence criterion met
 Total energy in the final basis set = -1510.26154305

             Standard Nuclear Orientation (Angstroms)
    I     Atom           X                Y                Z
 ----------------------------------------------------------------
    1      O      -4.4680622932     0.9225455387     1.9550086000
    2      C      -5.0047463163     1.1636481854     0.8530866258
    3      C      -5.2301604518     0.1707868649    -0.3469283567
    4      C      -3.8932028382    -0.3245968740    -1.0338880126
    5      C      -2.6176567951     0.5229116682    -0.6952772230
    6      O      -1.4645594691    -0.0308264264    -1.3829996199
    7      C      -0.4201871377    -0.3639654592    -0.3838492215
    8      C       0.7916060763    -0.9533030723    -1.1779798161
    9      O       1.8259837584    -1.2810233449    -0.1668895148
   10      C       3.1068656058    -1.4054577708    -0.8027414328
   11      C       4.2496796736    -1.2675640466     0.2727686320
   12      C       5.2740000812    -0.1100942466    -0.0515652320
   13      C       4.5923523898     1.0228608565    -0.9037581472
   14      O       3.4613538024     0.9892115921    -1.4393636698
   15      O      -5.5521177709     2.4364371996     0.4830150457
   16      O       5.4819230257     2.1357710885    -0.9906970472
   17      O       3.2642223267    -1.7048546421    -2.0062672994
   18      C       4.8560420913     3.2251744764    -1.7767763254
   19      C       3.8307725514    -0.9048507205     1.7627099369
   20      C       4.9375670978    -1.5111942294     2.7087529667
   21      C       6.1618773240    -0.5875151764     2.3498067121
   22      C       5.4815999226     0.4829881286     1.4068389978
   23      O       4.0764670387     0.5530882144     1.8809722345
   24      H       4.7922901210    -2.2312900700     0.2686180844
   25      H       6.2026572752    -0.4603705810    -0.5362344780
   26      H       2.7816370522    -1.1471399994     2.0179615578
   27      H       4.6433406106    -1.3937062010     3.7641442857
   28      H       5.1305015380    -2.5775431740     2.5099675912
   29      H       6.5857352832    -0.1041397103     3.2440562012
   30      H       6.9657868664    -1.1356478643     1.8321448015
   31      H       5.9466350122     1.4877988882     1.4140857450
   32      O      -2.5663816241     1.5377745122     0.0309575241
   33      C      -5.3109401320     3.4171481810     1.5658781878
   34      C      -5.7650849402    -1.2092585952     0.2332706422
   35      C      -6.2050360249    -2.1501937830    -0.9592758947
   36      C      -4.8112365303    -2.6626114618    -1.4806474926
   37      C      -3.8302150952    -1.8427305821    -0.5545686921
   38      O      -4.5267601307    -1.8397139173     0.7498489602
   39      H      -5.9212805305     0.6326378486    -1.0727407957
   40      H      -4.0016488046    -0.2998509680    -2.1346952689
   41      H      -4.2262153308     3.5454349931     1.7587167581
   42      H      -6.5090261363    -1.1041013665     1.0463206065
   43      H      -6.8290739996    -2.9785532838    -0.5884398944
   44      H      -6.7696012851    -1.6000840039    -1.7290448778
   45      H      -4.6880682648    -3.7435030404    -1.3051995233
   46      H      -4.6499720763    -2.4564606343    -2.5508630426
   47      H      -2.8095333119    -2.2597226553    -0.4589782040
   48      H      -5.8027465920     3.1115706696     2.5120997442
   49      H      -5.7425221890     4.3730263186     1.2163951483
   50      H       5.6016297747     4.0405754838    -1.8134574512
   51      H       3.9267366141     3.5917582946    -1.2948913891
   52      H       4.6127745877     2.8951276688    -2.8073080024
   53      H       0.4764314780    -1.8591643844    -1.7422415107
   54      H       1.1789385338    -0.2065040832    -1.9037451614
   55      H      -0.7940203380    -1.1176010848     0.3453358257
   56      H      -0.0947223199     0.5352828234     0.1856584469
 ----------------------------------------------------------------

    9   -1510.2615439738      5.99E-09 Convergence criterion met
 Total energy in the final basis set = -1510.26154397
 Final energy is   -1510.26154397376
 **  OPTIMIZATION CONVERGED  **

                    Orbital Energies (a.u.)
 --------------------------------------------------------------

 Alpha MOs
 -- Occupied --
-18.942 -18.922 -18.920 -18.910 -18.900 -18.889 -18.885 -18.884
-18.861 -18.860 -10.107 -10.105 -10.094 -10.088 -10.070 -10.068
-10.065 -10.062 -10.060 -10.059 -10.056 -10.054 -10.041 -10.038
-10.033 -10.032 -10.021 -10.021 -10.020 -10.018  -1.019  -1.010
 -1.000  -0.997  -0.971  -0.969  -0.943  -0.939  -0.926  -0.923
 -0.763  -0.762  -0.724  -0.722  -0.713  -0.705  -0.692  -0.665
 -0.655  -0.607  -0.595  -0.575  -0.545  -0.544  -0.537  -0.536
 -0.517  -0.509  -0.482  -0.469  -0.461  -0.455  -0.451  -0.446
 -0.440  -0.433  -0.433  -0.415  -0.409  -0.407  -0.402  -0.398
 -0.392  -0.377  -0.374  -0.366  -0.359  -0.355  -0.349  -0.344
 -0.340  -0.337  -0.335  -0.330  -0.328  -0.327  -0.320  -0.312
 -0.311  -0.306  -0.305  -0.302  -0.294  -0.281  -0.275  -0.274
 -0.272  -0.259  -0.250  -0.245  -0.243  -0.234  -0.233  -0.184
 -0.169  -0.168  -0.163  -0.158  -0.157  -0.147  -0.146  -0.139
 -0.138

          Ground-State Mulliken Net Atomic Charges

     Atom                 Charge (a.u.)
  ----------------------------------------
      1 O                    -0.213520
      2 C                     0.212311
      3 C                    -0.081227
      4 C                    -0.080415
      5 C                     0.219498
      6 O                    -0.191640
      7 C                    -0.045783
      8 C                    -0.044534
      9 O                    -0.180110
     10 C                     0.216904
     11 C                    -0.082289
     12 C                    -0.075983
     13 C                     0.217629
     14 O                    -0.209550
     15 O                    -0.172342
     16 O                    -0.168782
     17 O                    -0.218090
     18 C                    -0.127851
     19 C                     0.022431
     20 C                    -0.141996
     21 C                    -0.145389
     22 C                     0.023206
     23 O                    -0.193438
     24 H                     0.081736
     25 H                     0.088805
     26 H                     0.092818
     27 H                     0.078029
     28 H                     0.073337
     29 H                     0.078312
     30 H                     0.073633
     31 H                     0.087157
     32 O                    -0.184872
     33 C                    -0.128629
     34 C                     0.026128
     35 C                    -0.145193
     36 C                    -0.142084
     37 C                     0.025378
     38 O                    -0.185999
     39 H                     0.085577
     40 H                     0.086725
     41 H                     0.093053
     42 H                     0.083755
     43 H                     0.078162
     44 H                     0.073998
     45 H                     0.078149
     46 H                     0.074364
     47 H                     0.083288
     48 H                     0.086127
     49 H                     0.087146
     50 H                     0.092068
     51 H                     0.092054
     52 H                     0.091570
     53 H                     0.084120
     54 H                     0.100309
     55 H                     0.080624
     56 H                     0.091320
  ----------------------------------------
  Sum of atomic charges =    -0.000000

                    Cartesian Multipole Moments
 -----------------------------------------------------------------
    Charge (ESU x 10^10)
                -0.0000
    Dipole Moment (Debye)
         X       0.7753      Y      -0.1165      Z      -0.8739
       Tot       1.1740
    Quadrupole Moments (Debye-Ang)
        XX    -133.7841     XY       3.1896     YY    -152.1184
        XZ      11.0980     YZ      -2.6670     ZZ    -164.2151

 Total job time:  51.92s(wall), 2468.11s(cpu)
        *  Thank you very much for using Q-Chem.  Have a nice day.  *
