 Q-Chem 5.0, Q-Chem, Inc., Pleasanton, CA (2017)
 Q-Chem 5.0.1 for Intel X86 EM64T Linux

User input:
--------------------------------------------------------------
$molecule
0  1
O -4.4680622932 0.9225455387 1.9550086
C -5.0047463163 1.1636481854 0.8530866258
C -5.2301604518 0.1707868649 -0.3469283567
C -3.8932028382 -0.324596874 -1.0338880126
C -2.6176567951 0.5229116682 -0.695277223
O -1.4645594691 -0.0308264264 -1.3829996199
C -0.4201871377 -0.3639654592 -0.3838492215
C 0.7916060763 -0.9533030723 -1.1779798161
O 1.8259837584 -1.2810233449 -0.1668895148
C 3.1068656058 -1.4054577708 -0.8027414328
C 4.2496796736 -1.2675640466 0.272768632
C 5.2740000812 -0.1100942466 -0.051565232
C 4.5923523898 1.0228608565 -0.9037581472
O 3.4613538024 0.9892115921 -1.4393636698
O -5.5521177709 2.4364371996 0.4830150457
O 5.4819230257 2.1357710885 -0.9906970472
O 3.2642223267 -1.7048546421 -2.0062672994
C 4.8560420913 3.2251744764 -1.7767763254
C 3.8307725514 -0.9048507205 1.7627099369
C 4.9375670978 -1.5111942294 2.7087529667
C 6.161877324 -0.5875151764 2.3498067121
C 5.4815999226 0.4829881286 1.4068389978
O 4.0764670387 0.5530882144 1.8809722345
H 4.792290121 -2.23129007 0.2686180844
H 6.2026572752 -0.460370581 -0.536234478
H 2.7816370522 -1.1471399994 2.0179615578
H 4.6433406106 -1.393706201 3.7641442857
H 5.130501538 -2.577543174 2.5099675912
H 6.5857352832 -0.1041397103 3.2440562012
H 6.9657868664 -1.1356478643 1.8321448015
H 5.9466350122 1.4877988882 1.414085745
O -2.5663816241 1.5377745122 0.0309575241
C -5.310940132 3.417148181 1.5658781878
C -5.7650849402 -1.2092585952 0.2332706422
C -6.2050360249 -2.150193783 -0.9592758947
C -4.8112365303 -2.6626114618 -1.4806474926
C -3.8302150952 -1.8427305821 -0.5545686921
O -4.5267601307 -1.8397139173 0.7498489602
H -5.9212805305 0.6326378486 -1.0727407957
H -4.0016488046 -0.299850968 -2.1346952689
H -4.2262153308 3.5454349931 1.7587167581
H -6.5090261363 -1.1041013665 1.0463206065
H -6.8290739996 -2.9785532838 -0.5884398944
H -6.7696012851 -1.6000840039 -1.7290448778
H -4.6880682648 -3.7435030404 -1.3051995233
H -4.6499720763 -2.4564606343 -2.5508630426
H -2.8095333119 -2.2597226553 -0.458978204
H -5.802746592 3.1115706696 2.5120997442
H -5.742522189 4.3730263186 1.2163951483
H 5.6016297747 4.0405754838 -1.8134574512
H 3.9267366141 3.5917582946 -1.2948913891
H 4.6127745877 2.8951276688 -2.8073080024
H 0.476431478 -1.8591643844 -1.7422415107
H 1.1789385338 -0.2065040832 -1.9037451614
H -0.794020338 -1.1176010848 0.3453358257
H -0.0947223199 0.5352828234 0.1856584469
$end

$rem
JOBTYPE                   OPT
METHOD                    B3LYP
DFT_D                     d3_op
BASIS                     STO-3G
GEOM_OPT_MAX_CYCLES       100
GEOM_OPT_TOL_GRADIENT     300
GEOM_OPT_TOL_DISPLACEMENT 1200
GEOM_OPT_TOL_ENERGY       100
SYMMETRY                  False
THRESH                    12
SCF_CONVERGENCE           8
MAX_SUB_FILE_NUM          128
MEM_STATIC                400
MEM_TOTAL                 4000
$end
--------------------------------------------------------------

   16   -1510.2616937222      5.40E-09 Convergence criterion met
 Total energy in the final basis set = -1510.26169372
   13   -1510.2664019684      8.49E-09 Convergence criterion met
 Total energy in the final basis set = -1510.26640197
   13   -1510.2707541517      4.42E-09 Convergence criterion met
 Total energy in the final basis set = -1510.27075415
   13   -1510.2748897273      6.46E-09 Convergence criterion met
 Total energy in the final basis set = -1510.27488973
   14   -1510.2784120702      1.86E-09 Convergence criterion met
 Total energy in the final basis set = -1510.27841207
   13   -1510.2806200353      5.73E-09 Convergence criterion met
 Total energy in the final basis set = -1510.28062004
   13   -1510.2820881997      6.93E-09 Convergence criterion met
 Total energy in the final basis set = -1510.28208820
   13   -1510.2831030418      6.73E-09 Convergence criterion met
   13   -1510.2921401013      4.23E-09 Convergence criterion met
 Total energy in the final basis set = -1510.29214010
   13   -1510.2921641043      3.73E-09 Convergence criterion met
 Total energy in the final basis set = -1510.29216410
    9   -1510.2921648919      7.36E-09 Convergence criterion met
 Total energy in the final basis set = -1510.29216489
   12   -1510.2921685063      4.28E-09 Convergence criterion met
 Total energy in the final basis set = -1510.29216851
   10   -1510.2921676977      8.82E-09 Convergence criterion met
 Total energy in the final basis set = -1510.29216770
    9   -1510.2921682334      5.62E-09 Convergence criterion met
 Total energy in the final basis set = -1510.29216823

             Standard Nuclear Orientation (Angstroms)
    I     Atom           X                Y                Z
 ----------------------------------------------------------------
    1      O      -3.7670240341     2.6493501682     0.2771998967
    2      C      -3.7035374099     1.8532841523    -0.6828266893
    3      C      -4.4525065431     0.4775152729    -0.8441004472
    4      C      -3.5133852183    -0.7947394354    -0.8170884321
    5      C      -2.0391504061    -0.4465500006    -0.4264204796
    6      O      -1.2379815157    -1.6186943112    -0.5259710261
    7      C       0.1362544981    -1.2954122613    -0.0663753290
    8      C       1.0981213951    -2.5037038695    -0.3120282017
    9      O       2.4164142743    -2.0559601435     0.2020612750
   10      C       3.2806494688    -1.6558936188    -0.8736708378
   11      C       4.4998609404    -0.8871554019    -0.2500119817
   12      C       4.1459062582     0.5853821201     0.2373396248
   13      C       2.6757027490     1.0224152900    -0.0998206901
   14      O       2.0067741020     0.6481586842    -1.0941341707
   15      O      -3.0331417488     2.1250972459    -1.9242412925
   16      O       2.2004894887     1.9421187582     0.8733710273
   17      O       3.0956925315    -1.9431930456    -2.0758173425
   18      C       0.8484082661     2.4428946351     0.5075100507
   19      C       4.9727607410    -1.5340054118     1.1226642046
   20      C       6.3936519447    -0.9465811457     1.4909684314
   21      C       6.0088382969     0.4939575721     1.9947943208
   22      C       4.4424512342     0.4755734387     1.7932125344
   23      O       4.0700954216    -0.9179783531     2.1220099391
   24      H       5.3084692095    -0.8705140141    -1.0017647793
   25      H       4.8224131882     1.3208270719    -0.2376886043
   26      H       4.8946616404    -2.6375994673     1.1597151264
   27      H       6.8613459311    -1.5433160452     2.2900481218
   28      H       7.0708134861    -0.9271358028     0.6221603679
   29      H       6.2574758310     0.6284567911     3.0595295843
   30      H       6.4948791849     1.2941712662     1.4141066793
   31      H       3.8668414019     1.1919704708     2.4102423094
   32      O      -1.6127457711     0.6697291055    -0.0413646196
   33      C      -2.2830237328     3.3948123198    -1.8201457633
   34      C      -5.4134582150     0.1742774700     0.3824236771
   35      C      -6.4769314521    -0.8939813027    -0.0822104755
   36      C      -5.5837471380    -2.1876886227    -0.1624048730
   37      C      -4.1936910747    -1.6365556492     0.3485933913
   38      O      -4.5604331836    -0.5878046337     1.3262040769
   39      H      -5.0148036488     0.5129154811    -1.7945711384
   40      H      -3.5142096754    -1.3424381521    -1.7763446373
   41      H      -1.5108228208     3.3423753526    -1.0260546112
   42      H      -5.8162728301     1.0806401342     0.8747269252
   43      H      -7.2703953041    -0.9993667548     0.6747458492
   44      H      -6.9400976461    -0.6326926428    -1.0469666244
   45      H      -5.9535810485    -2.9790540709     0.5087730734
   46      H      -5.5151470577    -2.5949930558    -1.1839110575
   47      H      -3.5264332576    -2.3906430673     0.8095587417
   48      H      -2.9529272784     4.2522499237    -1.6035065955
   49      H      -1.7947321768     3.5452676071    -2.8006567826
   50      H       0.5513670283     3.1155503629     1.3324662830
   51      H       0.0909996808     1.6320851689     0.3958997214
   52      H       0.8908429504     3.0200385430    -0.4384158691
   53      H       0.7912460698    -3.4005369090     0.2634828990
   54      H       1.1728629253    -2.7468394298    -1.3934729489
   55      H       0.1263767418    -1.0515440448     1.0183003973
   56      H       0.5494464395    -0.4157476207    -0.6151248462
 ----------------------------------------------------------------

   10   -1510.2921688257      7.03E-09 Convergence criterion met
 Total energy in the final basis set = -1510.29216883
 Final energy is   -1510.29216882567
 **  OPTIMIZATION CONVERGED  **

                    Orbital Energies (a.u.)
 --------------------------------------------------------------

 Alpha MOs
 -- Occupied --
-18.945 -18.943 -18.925 -18.919 -18.888 -18.887 -18.886 -18.883
-18.873 -18.860 -10.109 -10.109 -10.097 -10.090 -10.066 -10.061
-10.061 -10.060 -10.059 -10.056 -10.055 -10.054 -10.042 -10.040
-10.038 -10.032 -10.021 -10.020 -10.020 -10.019  -1.022  -1.019
 -1.006  -0.997  -0.970  -0.969  -0.944  -0.943  -0.933  -0.924
 -0.765  -0.762  -0.727  -0.722  -0.713  -0.706  -0.693  -0.661
 -0.654  -0.613  -0.597  -0.576  -0.546  -0.544  -0.538  -0.536
 -0.517  -0.509  -0.486  -0.473  -0.468  -0.456  -0.454  -0.446
 -0.434  -0.433  -0.430  -0.417  -0.407  -0.405  -0.403  -0.399
 -0.392  -0.385  -0.375  -0.368  -0.359  -0.356  -0.349  -0.345
 -0.341  -0.340  -0.334  -0.332  -0.329  -0.326  -0.323  -0.314
 -0.310  -0.306  -0.304  -0.301  -0.294  -0.286  -0.280  -0.276
 -0.271  -0.264  -0.249  -0.244  -0.243  -0.234  -0.234  -0.191
 -0.177  -0.171  -0.164  -0.162  -0.159  -0.151  -0.144  -0.144
 -0.141

          Ground-State Mulliken Net Atomic Charges

     Atom                 Charge (a.u.)
  ----------------------------------------
      1 O                    -0.217867
      2 C                     0.216291
      3 C                    -0.081358
      4 C                    -0.077083
      5 C                     0.221267
      6 O                    -0.169784
      7 C                    -0.062468
      8 C                    -0.051898
      9 O                    -0.174300
     10 C                     0.212236
     11 C                    -0.079448
     12 C                    -0.077708
     13 C                     0.216342
     14 O                    -0.218327
     15 O                    -0.176673
     16 O                    -0.165711
     17 O                    -0.210309
     18 C                    -0.140765
     19 C                     0.026799
     20 C                    -0.144475
     21 C                    -0.143745
     22 C                     0.023627
     23 O                    -0.186336
     24 H                     0.084505
     25 H                     0.086111
     26 H                     0.085142
     27 H                     0.078125
     28 H                     0.073524
     29 H                     0.078442
     30 H                     0.072995
     31 H                     0.092477
     32 O                    -0.211169
     33 C                    -0.128087
     34 C                     0.024288
     35 C                    -0.143540
     36 C                    -0.144079
     37 C                     0.024852
     38 O                    -0.190041
     39 H                     0.083832
     40 H                     0.088622
     41 H                     0.088126
     42 H                     0.089864
     43 H                     0.078067
     44 H                     0.073453
     45 H                     0.078302
     46 H                     0.073942
     47 H                     0.084868
     48 H                     0.085628
     49 H                     0.086732
     50 H                     0.090872
     51 H                     0.113572
     52 H                     0.082646
     53 H                     0.086865
     54 H                     0.100884
     55 H                     0.084065
     56 H                     0.107809
  ----------------------------------------
  Sum of atomic charges =     0.000000

                    Cartesian Multipole Moments
 -----------------------------------------------------------------
    Charge (ESU x 10^10)
                 0.0000
    Dipole Moment (Debye)
         X       0.9093      Y      -0.1096      Z      -0.8411
       Tot       1.2435
    Quadrupole Moments (Debye-Ang)
        XX    -137.7689     XY       9.5224     YY    -154.7092
        XZ      10.5819     YZ      -4.0025     ZZ    -168.9657

 Total job time:  130.20s(wall), 6202.79s(cpu)
        *  Thank you very much for using Q-Chem.  Have a nice day.  *
