 Q-Chem 5.0, Q-Chem, Inc., Pleasanton, CA (2017)
 Q-Chem 5.0.1 for Intel X86 EM64T Linux

User input:
--------------------------------------------------------------
$molecule
0  1
O -2.8433707582 2.2460236383 0.2356564447
C -2.7191449512 1.4172789446 -0.6936859166
C -3.2821257842 -0.0421708963 -0.7507958818
C -2.9917590212 -0.8593711566 0.5762379641
C -2.6715666351 0.054277243 1.8378940098
O -1.3338082483 0.5269294924 2.078261028
C -0.2465591185 -0.0342026297 1.2481850595
C 0.736513414 1.1769182267 0.9639066178
O 0.9994042002 1.4875452609 -0.4634931807
C 2.2925177176 1.0535340717 -0.9495643056
C 2.7184180006 -0.4756840815 -1.0857470016
C 4.2466995846 -0.6416785427 -0.6816620321
C 4.8140352992 0.594936509 0.0933066261
O 5.9503616439 1.1016282044 -0.0018382717
O -1.9854549041 1.642217996 -1.8981929233
O 3.8133806482 1.0389480104 1.0307790877
O 2.9775832816 1.916510577 -1.5460385282
C 4.2717360167 2.2652691974 1.7226916621
C 2.0582951661 -1.6499006417 -0.2669937652
C 2.4187139073 -3.0083101061 -0.9928349588
C 3.9242641389 -3.1911747913 -0.5793481053
C 4.1521087799 -1.8982821801 0.2960741569
O 2.8527922975 -1.7020954661 0.9823790222
H 2.6037243677 -0.6824783193 -2.1671116954
H 4.8985803347 -0.8394726451 -1.5496658897
H 0.984874948 -1.537135399 -0.0577569465
H 1.7903403507 -3.8254421411 -0.6044693627
H 2.280373439 -2.9445556659 -2.0838923308
H 4.0719470282 -4.0989656139 0.0271242925
H 4.6038138209 -3.2281928704 -1.4454328566
H 4.9727207555 -1.9684033052 1.0363827399
O -3.5365268653 0.399687858 2.670315481
C -1.2177894804 2.9110011302 -1.8148680432
C -4.864732679 -0.1798374256 -0.8666635202
C -5.157888698 -1.5987742086 -1.4944116208
C -4.7638413067 -2.536183171 -0.293040662
C -4.4339110959 -1.4769189149 0.8339132814
O -5.3270827313 -0.3349933122 0.5281625428
H -2.8003927083 -0.5321059579 -1.6158256258
H -2.2316336304 -1.6441159013 0.4289299499
H -0.2316564554 2.6878021886 -1.3434309312
H -5.372206187 0.6736076203 -1.3566565747
H -6.2278320028 -1.6912205862 -1.7408712964
H -4.566507908 -1.7922707328 -2.4038426031
H -5.6036232668 -3.1796612078 0.013014419
H -3.8962680992 -3.1760412508 -0.5218610994
H -4.5969117753 -1.8215891517 1.8729278829
H -1.7631224233 3.6657914489 -1.2154032983
H -1.076932602 3.27000276 -2.8505988763
H 3.5386941873 2.4598757335 2.5268589381
H 4.2948393902 3.1281438738 1.0256506842
H 5.2819445886 2.1314857995 2.1582624525
H 0.2514715694 2.0833398694 1.3857961919
H 1.7048632202 1.0037908834 1.4802437789
H -0.6164959833 -0.4327071313 0.2833438724
H 0.2682578834 -0.8415776115 1.8114663388
$end

$rem
JOBTYPE                   OPT
METHOD                    B3LYP
DFT_D                     d3_op
BASIS                     STO-3G
GEOM_OPT_MAX_CYCLES       100
GEOM_OPT_TOL_GRADIENT     300
GEOM_OPT_TOL_DISPLACEMENT 1200
GEOM_OPT_TOL_ENERGY       100
SYMMETRY                  False
THRESH                    12
SCF_CONVERGENCE           8
MAX_SUB_FILE_NUM          128
MEM_STATIC                400
MEM_TOTAL                 4000
$end
--------------------------------------------------------------

   16   -1510.2458545946      7.27E-09 Convergence criterion met
 Total energy in the final basis set = -1510.24585459
   14   -1510.2411400654      2.93E-09 Convergence criterion met
 Total energy in the final basis set = -1510.24114007
   14   -1510.2500080405      8.85E-09 Convergence criterion met
 Total energy in the final basis set = -1510.25000804
   14   -1510.2520815672      8.14E-09 Convergence criterion met
 Total energy in the final basis set = -1510.25208157
   13   -1510.2555857683      7.60E-09 Convergence criterion met
 Total energy in the final basis set = -1510.25558577
   14   -1510.2587926051      5.20E-09 Convergence criterion met
 Total energy in the final basis set = -1510.25879261
   13   -1510.2606237804      7.69E-09 Convergence criterion met
 Total energy in the final basis set = -1510.26062378
   14   -1510.2621937933      5.26E-09 Convergence criterion met
   11   -1510.2806294784      4.17E-09 Convergence criterion met
 Total energy in the final basis set = -1510.28062948
   11   -1510.2806481715      4.79E-09 Convergence criterion met
 Total energy in the final basis set = -1510.28064817
   10   -1510.2806594189      7.21E-09 Convergence criterion met
 Total energy in the final basis set = -1510.28065942
   10   -1510.2806659988      6.09E-09 Convergence criterion met
 Total energy in the final basis set = -1510.28066600
    9   -1510.2806673773      7.52E-09 Convergence criterion met
 Total energy in the final basis set = -1510.28066738
    9   -1510.2806663060      3.63E-09 Convergence criterion met
 Total energy in the final basis set = -1510.28066631

             Standard Nuclear Orientation (Angstroms)
    I     Atom           X                Y                Z
 ----------------------------------------------------------------
    1      O      -1.1375716884     1.4277298789     0.3256587808
    2      C      -1.8837027907     1.0811038587    -0.6243855242
    3      C      -3.1072651250     0.1049889744    -0.5210707511
    4      C      -3.3152395471    -0.4803319821     0.9307971755
    5      C      -2.2528743208    -0.0360074137     2.0272366166
    6      O      -1.0869032966    -0.8614643110     2.2219778836
    7      C      -0.5921222463    -1.6120130666     1.0481132237
    8      C       0.7643102610    -0.9681205103     0.5698990124
    9      O       0.5648479435    -0.4689204134    -0.8167626256
   10      C       1.7371577082    -0.1942086731    -1.5801956752
   11      C       3.1419980826    -0.9018550520    -1.3370478161
   12      C       4.0044411020    -0.3915240955    -0.1057408153
   13      C       3.3028705600     0.6816512397     0.8030875977
   14      O       3.4166525978     0.8069598842     2.0415787772
   15      O      -1.8114915351     1.5306388853    -1.9614994216
   16      O       2.5081486279     1.5122555500    -0.0415444107
   17      O       1.5812552791     0.5255861398    -2.6035938193
   18      C       1.6507293500     2.4423655740     0.7392498978
   19      C       3.1222520483    -2.4650314701    -1.0623764946
   20      C       4.5495581445    -3.0525578984    -1.3859400330
   21      C       5.3821923044    -2.5541011158    -0.1430598114
   22      C       4.2892741999    -1.7504115899     0.6580622766
   23      O       3.0648006704    -2.5621478137     0.4205895346
   24      H       3.6870004923    -0.6965843203    -2.2754331092
   25      H       4.9518934444     0.0492290153    -0.4671901780
   26      H       2.2704959580    -3.0088350484    -1.5154903688
   27      H       4.5091100929    -4.1527078957    -1.4275787675
   28      H       4.9460492451    -2.6777322386    -2.3432251471
   29      H       5.7525521865    -3.4003351596     0.4569371195
   30      H       6.2368917386    -1.9207177356    -0.4292451902
   31      H       4.4671802885    -1.6300599410     1.7448970048
   32      O      -2.4810618476     0.8353651903     2.8933093146
   33      C      -0.6097034893     2.3687392368    -2.2090875975
   34      C      -4.4750529751     0.8893345993    -0.7337174138
   35      C      -5.6325599338    -0.1643634098    -0.9497519473
   36      C      -5.8390951780    -0.6935200302     0.5180524103
   37      C      -4.7371398658     0.1299078538     1.2936596073
   38      O      -4.7462326788     1.4435220740     0.6099512771
   39      H      -2.9827146025    -0.6902192980    -1.2783371829
   40      H      -3.3632514954    -1.5832099607     0.9077853082
   41      H       0.2789206882     1.6998158350    -2.3761066228
   42      H      -4.4188856943     1.6953208280    -1.4911436886
   43      H      -6.5378275170     0.3327626613    -1.3328687083
   44      H      -5.3417006662    -0.9598624450    -1.6543823543
   45      H      -6.8428590054    -0.4450899842     0.8979214736
   46      H      -5.6865495472    -1.7810703878     0.6053883924
   47      H      -4.9057122736     0.2624597135     2.3797150195
   48      H      -0.4269693601     3.0635141358    -1.3674096466
   49      H      -0.8316245708     2.9460232545    -3.1251615831
   50      H       0.5833728698     2.1517367277     0.5777695311
   51      H       1.8317011239     3.4679435310     0.3653319822
   52      H       1.9148814074     2.3783464467     1.8130059066
   53      H       0.9564320613    -0.1086145878     1.2441512682
   54      H       1.6266587829    -1.6852322147     0.6350253412
   55      H      -1.3040182720    -1.6379190278     0.2003010718
   56      H      -0.4170818907    -2.6553879264     1.3868723400
 ----------------------------------------------------------------

    9   -1510.2806659670      2.46E-09 Convergence criterion met
 Total energy in the final basis set = -1510.28066597
 Final energy is   -1510.28066596703
 **  OPTIMIZATION CONVERGED  **

                    Orbital Energies (a.u.)
 --------------------------------------------------------------

 Alpha MOs
 -- Occupied --
-18.942 -18.935 -18.931 -18.926 -18.911 -18.886 -18.884 -18.880
-18.874 -18.855 -10.110 -10.110 -10.104 -10.087 -10.082 -10.080
-10.067 -10.057 -10.053 -10.053 -10.050 -10.045 -10.043 -10.038
-10.037 -10.036 -10.034 -10.029 -10.018 -10.017  -1.021  -1.011
 -1.005  -0.998  -0.988  -0.967  -0.944  -0.938  -0.935  -0.919
 -0.780  -0.759  -0.737  -0.722  -0.719  -0.702  -0.699  -0.658
 -0.650  -0.611  -0.593  -0.587  -0.563  -0.555  -0.545  -0.535
 -0.527  -0.506  -0.492  -0.480  -0.470  -0.460  -0.454  -0.451
 -0.444  -0.431  -0.427  -0.425  -0.418  -0.409  -0.400  -0.397
 -0.390  -0.384  -0.378  -0.372  -0.364  -0.362  -0.355  -0.351
 -0.344  -0.341  -0.337  -0.331  -0.328  -0.327  -0.322  -0.320
 -0.311  -0.310  -0.306  -0.303  -0.291  -0.291  -0.289  -0.280
 -0.269  -0.263  -0.249  -0.247  -0.243  -0.231  -0.226  -0.182
 -0.181  -0.179  -0.166  -0.163  -0.157  -0.152  -0.142  -0.141
 -0.133

          Ground-State Mulliken Net Atomic Charges

     Atom                 Charge (a.u.)
  ----------------------------------------
      1 O                    -0.213619
      2 C                     0.225203
      3 C                    -0.080679
      4 C                    -0.088157
      5 C                     0.216576
      6 O                    -0.178224
      7 C                    -0.049858
      8 C                    -0.080645
      9 O                    -0.180315
     10 C                     0.222291
     11 C                    -0.084138
     12 C                    -0.081676
     13 C                     0.210444
     14 O                    -0.208893
     15 O                    -0.168099
     16 O                    -0.171341
     17 O                    -0.213227
     18 C                    -0.151497
     19 C                     0.022339
     20 C                    -0.142238
     21 C                    -0.142204
     22 C                     0.025100
     23 O                    -0.184069
     24 H                     0.091645
     25 H                     0.090268
     26 H                     0.088052
     27 H                     0.082417
     28 H                     0.079140
     29 H                     0.082968
     30 H                     0.078615
     31 H                     0.097734
     32 O                    -0.206125
     33 C                    -0.150081
     34 C                     0.025508
     35 C                    -0.144173
     36 C                    -0.144464
     37 C                     0.026424
     38 O                    -0.188012
     39 H                     0.083617
     40 H                     0.075879
     41 H                     0.119154
     42 H                     0.087085
     43 H                     0.078065
     44 H                     0.072446
     45 H                     0.078084
     46 H                     0.071663
     47 H                     0.090819
     48 H                     0.081526
     49 H                     0.081203
     50 H                     0.118756
     51 H                     0.082626
     52 H                     0.097255
     53 H                     0.088500
     54 H                     0.112154
     55 H                     0.085074
     56 H                     0.083101
  ----------------------------------------
  Sum of atomic charges =    -0.000000

                    Cartesian Multipole Moments
 -----------------------------------------------------------------
    Charge (ESU x 10^10)
                 0.0000
    Dipole Moment (Debye)
         X       2.5060      Y      -3.9360      Z      -3.3214
       Tot       5.7275
    Quadrupole Moments (Debye-Ang)
        XX    -140.5841     XY       2.0213     YY    -154.3602
        XZ       1.3234     YZ      -1.3876     ZZ    -175.5235

 Total job time:  191.85s(wall), 9159.19s(cpu)
        *  Thank you very much for using Q-Chem.  Have a nice day.  *
