 Q-Chem 5.0, Q-Chem, Inc., Pleasanton, CA (2017)
 Q-Chem 5.0.1 for Intel X86 EM64T Linux

User input:
--------------------------------------------------------------
$molecule
0  1
O -3.94934 -3.66094 2.70899
C -3.26408 -4.56952 2.26188
C -3.36658 -6.02376 2.66595
C -3.41669 -6.33291 4.1712
C -3.53792 -5.14515 5.09996
O -2.29942 -4.63188 5.36093
C -1.23437 -5.45961 4.88158
C -0.1033 -4.59578 4.3333
O 0.16521 -4.9501 2.96757
C 1.28285 -5.69144 2.76641
C 1.18962 -7.07229 3.37075
C 2.49083 -7.59359 3.99794
C 3.56565 -6.55514 4.2491
O 4.76684 -6.72836 4.10179
O -2.26976 -4.26549 1.38702
O 3.16523 -5.43445 4.90553
O 2.08527 -5.40775 1.88966
C 4.0049 -4.41223 5.29499
C 0.24076 -7.90857 4.29583
C 0.40992 -9.44373 4.12071
C 1.62103 -9.70252 4.9781
C 2.01436 -8.27355 5.29259
O 0.77626 -7.67762 5.57143
H 1.05879 -7.61969 2.4103
H 3.00074 -8.34818 3.35323
H -0.83267 -7.84329 4.13635
H -0.43836 -10.01712 4.56032
H 0.52191 -9.7219 3.05044
H 1.30077 -10.16231 5.94115
H 2.40361 -10.33728 4.50922
H 2.76191 -8.24898 6.11589
O -4.56623 -4.65515 5.54457
C -1.98461 -2.99078 0.94562
C -4.71718 -6.56616 2.17313
C -4.68527 -8.09362 2.10981
C -4.7867 -8.42472 3.57742
C -4.82482 -7.01352 4.17775
O -5.57885 -6.29126 3.24001
H -2.54726 -6.57128 2.14645
H -2.84633 -7.18959 4.59793
H -1.70889 -2.34215 1.80455
H -5.01406 -6.15063 1.18416
H -5.60324 -8.46067 1.59816
H -3.78412 -8.49008 1.59383
H -5.77563 -8.90351 3.75896
H -3.98338 -9.07989 3.97788
H -5.26784 -7.0776 5.19783
H -2.86323 -2.56314 0.41701
H -1.12852 -3.03321 0.24152
H 3.40889 -3.62726 5.80398
H 4.49995 -3.96588 4.40621
H 4.7721 -4.79405 6.00192
H -0.37573 -3.51878 4.35804
H 0.78392 -4.69836 4.99534
H -1.32507 -5.97599 3.96276
H -0.88206 -6.06029 5.73814
$end

$opt
CONSTRAINT
tors           1           2           3           4     -47.368
tors           3           4           5           6     -85.263
tors           4           5           6           7      -9.474
tors           5           6           7           8    +142.105
tors           6           7           8           9    -123.158
tors           7           8           9          10    -104.211
tors           8           9          10          11     +66.316
tors           9          10          11          12    -142.105
tors          11          12          13          14    -142.105
ENDCONSTRAINT
$end

$rem
JOBTYPE                   OPT
METHOD                    B3LYP
DFT_D                     d3_op
BASIS                     STO-3G
GEOM_OPT_MAX_CYCLES       100
GEOM_OPT_TOL_GRADIENT     300
GEOM_OPT_TOL_DISPLACEMENT 1200
GEOM_OPT_TOL_ENERGY       100
SYMMETRY                  False
THRESH                    12
SCF_CONVERGENCE           8
MAX_SUB_FILE_NUM          128
MEM_STATIC                400
MEM_TOTAL                 4000
$end
--------------------------------------------------------------

   15   -1510.0447757569      9.53E-09 Convergence criterion met
 Total energy in the final basis set = -1510.04477576
   14   -1510.1283809665      9.69E-09 Convergence criterion met
 Total energy in the final basis set = -1510.12838097
   14   -1510.1787023154      2.71E-09 Convergence criterion met
 Total energy in the final basis set = -1510.17870232
   14   -1510.2097807184      6.95E-09 Convergence criterion met
 Total energy in the final basis set = -1510.20978072
   14   -1510.2266068289      4.63E-09 Convergence criterion met
 Total energy in the final basis set = -1510.22660683
   14   -1510.2349297090      4.81E-09 Convergence criterion met
 Total energy in the final basis set = -1510.23492971
   14   -1510.2395369700      4.27E-09 Convergence criterion met
 Total energy in the final basis set = -1510.23953697
   13   -1510.2415223357      3.83E-09 Convergence criterion met
   10   -1510.2457645551      9.28E-09 Convergence criterion met
 Total energy in the final basis set = -1510.24576456
   10   -1510.2457754553      8.99E-09 Convergence criterion met
 Total energy in the final basis set = -1510.24577546
   11   -1510.2457857413      2.37E-09 Convergence criterion met
 Total energy in the final basis set = -1510.24578574
    9   -1510.2457896037      5.17E-09 Convergence criterion met
 Total energy in the final basis set = -1510.24578960
    9   -1510.2457918949      5.02E-09 Convergence criterion met
 Total energy in the final basis set = -1510.24579189
    9   -1510.2457929804      4.12E-09 Convergence criterion met
 Total energy in the final basis set = -1510.24579298

             Standard Nuclear Orientation (Angstroms)
    I     Atom           X                Y                Z
 ----------------------------------------------------------------
    1      O      -2.8433707582     2.2460236383     0.2356564447
    2      C      -2.7191449512     1.4172789446    -0.6936859166
    3      C      -3.2821257842    -0.0421708963    -0.7507958818
    4      C      -2.9917590212    -0.8593711566     0.5762379641
    5      C      -2.6715666351     0.0542772430     1.8378940098
    6      O      -1.3338082483     0.5269294924     2.0782610280
    7      C      -0.2465591185    -0.0342026297     1.2481850595
    8      C       0.7365134140     1.1769182267     0.9639066178
    9      O       0.9994042002     1.4875452609    -0.4634931807
   10      C       2.2925177176     1.0535340717    -0.9495643056
   11      C       2.7184180006    -0.4756840815    -1.0857470016
   12      C       4.2466995846    -0.6416785427    -0.6816620321
   13      C       4.8140352992     0.5949365090     0.0933066261
   14      O       5.9503616439     1.1016282044    -0.0018382717
   15      O      -1.9854549041     1.6422179960    -1.8981929233
   16      O       3.8133806482     1.0389480104     1.0307790877
   17      O       2.9775832816     1.9165105770    -1.5460385282
   18      C       4.2717360167     2.2652691974     1.7226916621
   19      C       2.0582951661    -1.6499006417    -0.2669937652
   20      C       2.4187139073    -3.0083101061    -0.9928349588
   21      C       3.9242641389    -3.1911747913    -0.5793481053
   22      C       4.1521087799    -1.8982821801     0.2960741569
   23      O       2.8527922975    -1.7020954661     0.9823790222
   24      H       2.6037243677    -0.6824783193    -2.1671116954
   25      H       4.8985803347    -0.8394726451    -1.5496658897
   26      H       0.9848749480    -1.5371353990    -0.0577569465
   27      H       1.7903403507    -3.8254421411    -0.6044693627
   28      H       2.2803734390    -2.9445556659    -2.0838923308
   29      H       4.0719470282    -4.0989656139     0.0271242925
   30      H       4.6038138209    -3.2281928704    -1.4454328566
   31      H       4.9727207555    -1.9684033052     1.0363827399
   32      O      -3.5365268653     0.3996878580     2.6703154810
   33      C      -1.2177894804     2.9110011302    -1.8148680432
   34      C      -4.8647326790    -0.1798374256    -0.8666635202
   35      C      -5.1578886980    -1.5987742086    -1.4944116208
   36      C      -4.7638413067    -2.5361831710    -0.2930406620
   37      C      -4.4339110959    -1.4769189149     0.8339132814
   38      O      -5.3270827313    -0.3349933122     0.5281625428
   39      H      -2.8003927083    -0.5321059579    -1.6158256258
   40      H      -2.2316336304    -1.6441159013     0.4289299499
   41      H      -0.2316564554     2.6878021886    -1.3434309312
   42      H      -5.3722061870     0.6736076203    -1.3566565747
   43      H      -6.2278320028    -1.6912205862    -1.7408712964
   44      H      -4.5665079080    -1.7922707328    -2.4038426031
   45      H      -5.6036232668    -3.1796612078     0.0130144190
   46      H      -3.8962680992    -3.1760412508    -0.5218610994
   47      H      -4.5969117753    -1.8215891517     1.8729278829
   48      H      -1.7631224233     3.6657914489    -1.2154032983
   49      H      -1.0769326020     3.2700027600    -2.8505988763
   50      H       3.5386941873     2.4598757335     2.5268589381
   51      H       4.2948393902     3.1281438738     1.0256506842
   52      H       5.2819445886     2.1314857995     2.1582624525
   53      H       0.2514715694     2.0833398694     1.3857961919
   54      H       1.7048632202     1.0037908834     1.4802437789
   55      H      -0.6164959833    -0.4327071313     0.2833438724
   56      H       0.2682578834    -0.8415776115     1.8114663388
 ----------------------------------------------------------------

    9   -1510.2457936933      4.25E-09 Convergence criterion met
 Total energy in the final basis set = -1510.24579369
 Final energy is   -1510.24579369331
 **  OPTIMIZATION CONVERGED  **

                    Orbital Energies (a.u.)
 --------------------------------------------------------------

 Alpha MOs
 -- Occupied --
-18.947 -18.929 -18.928 -18.925 -18.903 -18.892 -18.889 -18.889
-18.872 -18.869 -10.115 -10.112 -10.095 -10.095 -10.078 -10.074
-10.074 -10.073 -10.072 -10.062 -10.059 -10.050 -10.049 -10.043
-10.039 -10.038 -10.033 -10.032 -10.022 -10.021  -1.025  -1.011
 -1.007  -0.999  -0.985  -0.970  -0.949  -0.944  -0.932  -0.930
 -0.776  -0.764  -0.735  -0.723  -0.720  -0.711  -0.705  -0.669
 -0.654  -0.614  -0.600  -0.597  -0.563  -0.552  -0.549  -0.539
 -0.523  -0.510  -0.501  -0.486  -0.476  -0.462  -0.453  -0.449
 -0.443  -0.437  -0.431  -0.425  -0.421  -0.413  -0.409  -0.405
 -0.400  -0.386  -0.382  -0.377  -0.369  -0.362  -0.358  -0.354
 -0.347  -0.341  -0.339  -0.336  -0.333  -0.329  -0.323  -0.320
 -0.315  -0.310  -0.309  -0.303  -0.298  -0.295  -0.288  -0.285
 -0.277  -0.268  -0.251  -0.248  -0.240  -0.236  -0.233  -0.189
 -0.184  -0.172  -0.168  -0.163  -0.160  -0.154  -0.152  -0.145
 -0.139

          Ground-State Mulliken Net Atomic Charges

     Atom                 Charge (a.u.)
  ----------------------------------------
      1 O                    -0.208763
      2 C                     0.201452
      3 C                    -0.083329
      4 C                    -0.086111
      5 C                     0.212440
      6 O                    -0.173172
      7 C                    -0.053742
      8 C                    -0.054497
      9 O                    -0.186126
     10 C                     0.219744
     11 C                    -0.081404
     12 C                    -0.078777
     13 C                     0.215397
     14 O                    -0.202456
     15 O                    -0.174026
     16 O                    -0.173795
     17 O                    -0.197559
     18 C                    -0.129768
     19 C                     0.017623
     20 C                    -0.143366
     21 C                    -0.143641
     22 C                     0.025604
     23 O                    -0.190905
     24 H                     0.087056
     25 H                     0.090125
     26 H                     0.081635
     27 H                     0.078179
     28 H                     0.075134
     29 H                     0.080315
     30 H                     0.077051
     31 H                     0.085370
     32 O                    -0.193040
     33 C                    -0.146203
     34 C                     0.026613
     35 C                    -0.142386
     36 C                    -0.145949
     37 C                     0.027868
     38 O                    -0.181643
     39 H                     0.082316
     40 H                     0.074571
     41 H                     0.106589
     42 H                     0.085562
     43 H                     0.078782
     44 H                     0.072876
     45 H                     0.078744
     46 H                     0.070340
     47 H                     0.088601
     48 H                     0.091971
     49 H                     0.083557
     50 H                     0.092452
     51 H                     0.094118
     52 H                     0.094890
     53 H                     0.101429
     54 H                     0.100987
     55 H                     0.082150
     56 H                     0.089120
  ----------------------------------------
  Sum of atomic charges =    -0.000000

                    Cartesian Multipole Moments
 -----------------------------------------------------------------
    Charge (ESU x 10^10)
                -0.0000
    Dipole Moment (Debye)
         X       2.4220      Y      -4.3850      Z      -2.4925
       Tot       5.5953
    Quadrupole Moments (Debye-Ang)
        XX    -176.5004     XY       2.1115     YY    -155.2006
        XZ      16.5704     YZ       2.5594     ZZ    -165.4496

 Total job time:  86.37s(wall), 4113.36s(cpu)
        *  Thank you very much for using Q-Chem.  Have a nice day.  *
