 Q-Chem 5.0, Q-Chem, Inc., Pleasanton, CA (2017)
 Q-Chem 5.0.1 for Intel X86 EM64T Linux

User input:
--------------------------------------------------------------
$molecule
0  1
O 4.896632228 0.8437697683 1.6003983852
C 4.4429027319 1.0652197722 0.4567010505
C 4.5001587936 0.1002562463 -0.788679842
C 3.6291109541 -1.2372768521 -0.6113839438
C 3.3068616701 -1.4812465549 0.9382782017
O 2.0560534692 -1.2509893816 1.6045210476
C 0.7964392694 -1.3551793488 0.8471746213
C -0.0023952341 0.0041334826 0.9657066675
O -0.6573465628 0.306558983 -0.3275730034
C -2.0890061178 0.4787121696 -0.2474887687
C -2.8979716163 -0.6173418929 0.564824171
C -4.3299780842 -0.1228501465 1.0020908521
C -4.5029397509 1.4286922992 1.1500235956
O -5.5819854653 2.0600810057 1.1563812556
O 3.7347379318 2.2619119949 0.1132441195
O -3.2388589299 1.9935319863 1.5287650884
O -2.6237652509 1.2913833384 -1.0310988404
C -3.3511200939 3.4598476064 1.6927886706
C -3.316914608 -1.7104080445 -0.5194853479
C -4.0627411078 -2.911063696 0.190853288
C -5.499979344 -2.303971324 0.4019280785
C -5.2624328923 -0.8197376165 -0.0799209932
O -4.3868739038 -1.0042809679 -1.2612917687
H -2.3265195287 -1.0460517707 1.4018896613
H -4.5648185176 -0.538382373 2.0010007007
H -2.4995828174 -2.0058610172 -1.2061200999
H -4.085236334 -3.7953467872 -0.4654486593
H -3.5778742759 -3.1893247605 1.1404215941
H -6.2428112456 -2.7999151229 -0.2432691735
H -5.8420271726 -2.3621145324 1.4475480099
H -6.1701668269 -0.2437919126 -0.3459809069
O 4.2452631004 -1.8463440508 1.6827217162
C 3.6361978315 3.1444707667 1.2981932531
C 3.8309546078 0.7355928232 -2.075919133
C 4.2673296855 -0.103545776 -3.3380943588
C 3.3915994116 -1.3947151923 -3.1548122334
C 2.6065872451 -1.0527208129 -1.8217982046
O 2.3934800864 0.4067700463 -1.9081333976
H 5.5607929031 -0.159827507 -0.9579709825
H 4.2838723034 -2.0965350652 -0.8477318146
H 4.6363860614 3.4672757914 1.6531109715
H 3.9658770411 1.8301162033 -2.160789211
H 4.0107868676 0.4321461536 -4.2656843728
H 5.3480828466 -0.31735944 -3.3401790054
H 2.6794762257 -1.5203305332 -3.9858435137
H 3.9926308677 -2.3132210127 -3.062363849
H 1.6423693303 -1.586136551 -1.7571268195
H 3.1121680739 2.6421149399 2.1369712018
H 3.0558176052 4.0269527837 0.9718182822
H -2.8455461637 3.9647027826 0.8450015293
H -2.8521110973 3.7407616966 2.6399976623
H -4.4208935073 3.7503152996 1.716296241
H -0.7021778673 -0.0115758187 1.8227245141
H 0.7399929828 0.8134799144 1.148131902
H 0.2104296889 -2.1841784899 1.3014877785
H 0.9393401172 -1.586191225 -0.218514635
$end

$rem
JOBTYPE                   OPT
METHOD                    B3LYP
DFT_D                     d3_op
BASIS                     STO-3G
GEOM_OPT_MAX_CYCLES       100
GEOM_OPT_TOL_GRADIENT     300
GEOM_OPT_TOL_DISPLACEMENT 1200
GEOM_OPT_TOL_ENERGY       100
SYMMETRY                  False
THRESH                    12
SCF_CONVERGENCE           8
MAX_SUB_FILE_NUM          128
MEM_STATIC                400
MEM_TOTAL                 4000
$end
--------------------------------------------------------------

   16   -1510.2268392865      6.71E-09 Convergence criterion met
 Total energy in the final basis set = -1510.22683929
   14   -1510.2307905716      4.33E-09 Convergence criterion met
 Total energy in the final basis set = -1510.23079057
   14   -1510.2348531026      5.31E-09 Convergence criterion met
 Total energy in the final basis set = -1510.23485310
   14   -1510.2389518574      3.13E-09 Convergence criterion met
 Total energy in the final basis set = -1510.23895186
   14   -1510.2420267054      2.72E-09 Convergence criterion met
 Total energy in the final basis set = -1510.24202671
   13   -1510.2447080101      3.62E-09 Convergence criterion met
 Total energy in the final basis set = -1510.24470801
   14   -1510.2449149429      1.30E-09 Convergence criterion met
 Total energy in the final basis set = -1510.24491494
   14   -1510.2472468766      7.64E-09 Convergence criterion met
   10   -1510.2890874006      7.01E-09 Convergence criterion met
 Total energy in the final basis set = -1510.28908740
    9   -1510.2890862049      6.80E-09 Convergence criterion met
 Total energy in the final basis set = -1510.28908620
    9   -1510.2890859971      8.16E-09 Convergence criterion met
 Total energy in the final basis set = -1510.28908600
    9   -1510.2890856466      8.94E-09 Convergence criterion met
 Total energy in the final basis set = -1510.28908565
    9   -1510.2890782151      6.93E-09 Convergence criterion met
 Total energy in the final basis set = -1510.28907822
    9   -1510.2890855206      4.90E-09 Convergence criterion met
 Total energy in the final basis set = -1510.28908552

             Standard Nuclear Orientation (Angstroms)
    I     Atom           X                Y                Z
 ----------------------------------------------------------------
    1      O      -0.4211577994    -0.3276761566     1.0248504613
    2      C      -1.5604747833    -0.7491272765     0.7097336635
    3      C      -2.8324105433     0.1549386684     0.5807483854
    4      C      -2.4693364697     1.6894128242     0.4132303568
    5      C      -0.9154692993     2.0438484064     0.5324930967
    6      O      -0.0063504194     2.0075283821    -0.5780339966
    7      C      -0.3573340837     1.2669533644    -1.8160695341
    8      C       0.6639417047     0.1083031461    -2.1332401855
    9      O       2.0029374502     0.5463566030    -2.5928308455
   10      C       2.9937518230     0.7675910550    -1.5608541882
   11      C       2.5019389501     0.8489418485    -0.0709584206
   12      C       2.4686186898    -0.5274997600     0.7256281742
   13      C       2.9261035656    -1.7488229019    -0.1204035155
   14      O       4.0665725015    -2.2241419885    -0.2887009485
   15      O      -1.8922310633    -2.1026152901     0.4682291217
   16      O       1.7428938614    -2.3092172879    -0.7561201690
   17      O       4.1663287674     0.9556982041    -1.9517937996
   18      C       2.1070565270    -3.4030784046    -1.6833955505
   19      C       3.4907667721     1.6834030115     0.8398682513
   20      C       2.6826797889     2.0907882445     2.1395591879
   21      C       2.6893002947     0.7316244227     2.9338810253
   22      C       3.4571839519    -0.2083989545     1.9227384327
   23      O       4.4714215459     0.6827549475     1.3205017799
   24      H       1.4974110415     1.3232755334    -0.0855893266
   25      H       1.4316411210    -0.7111056844     1.0684196149
   26      H       4.0108041484     2.5102126147     0.3186352242
   27      H       3.2057025470     2.8861081378     2.6936038191
   28      H       1.6529427470     2.4227355267     1.9026308328
   29      H       3.2469255449     0.8137501104     3.8805821192
   30      H       1.6725111479     0.3659060883     3.1487486493
   31      H       3.9407581473    -1.0992382432     2.3689143326
   32      O      -0.4507804843     2.5344933298     1.5893849443
   33      C      -0.7148346539    -2.9840884535     0.6975287205
   34      C      -3.7073727377    -0.1102540298    -0.7123178295
   35      C      -5.1229685155     0.5476102485    -0.4941196178
   36      C      -4.7785855769     2.0780900368    -0.6460274593
   37      C      -3.2298899846     2.0247547480    -0.9394925649
   38      O      -3.0954710364     0.7742330432    -1.7363150455
   39      H      -3.4401414150    -0.0063927568     1.4907111406
   40      H      -2.9194501874     2.2635057122     1.2424160611
   41      H      -0.4658423379    -3.0184951827     1.7774168620
   42      H      -3.7081802249    -1.1629880227    -1.0561687095
   43      H      -5.8261418711     0.2138610720    -1.2738306712
   44      H      -5.5447781227     0.3001517218     0.4929812611
   45      H      -5.3127387151     2.5280859718    -1.4979707635
   46      H      -5.0072662207     2.6583948110     0.2620777664
   47      H      -2.8244084936     2.8857676969    -1.5048665805
   48      H       0.1886265545    -2.6546241425     0.1224907730
   49      H      -1.0344263968    -3.9889132642     0.3670581705
   50      H       1.8183070480    -3.1161102131    -2.7136764925
   51      H       1.5634542081    -4.3220194497    -1.3900025045
   52      H       3.2017108178    -3.5702919631    -1.6261237523
   53      H       0.7388166177    -0.6288446654    -1.3057782025
   54      H       0.2406389417    -0.4250005958    -3.0114443318
   55      H      -0.3026073470     2.0085256575    -2.6421695416
   56      H      -1.3999653833     0.8498755108    -1.7895060135
 ----------------------------------------------------------------

    9   -1510.2890847710      6.00E-09 Convergence criterion met
 Total energy in the final basis set = -1510.28908477
 Final energy is   -1510.28908477099
 **  OPTIMIZATION CONVERGED  **

                    Orbital Energies (a.u.)
 --------------------------------------------------------------

 Alpha MOs
 -- Occupied --
-18.965 -18.942 -18.941 -18.934 -18.908 -18.906 -18.890 -18.878
-18.865 -18.854 -10.131 -10.114 -10.102 -10.090 -10.089 -10.076
-10.065 -10.065 -10.064 -10.058 -10.057 -10.054 -10.045 -10.044
-10.042 -10.033 -10.016  -9.998  -9.997  -9.988  -1.040  -1.016
 -1.013  -1.006  -0.983  -0.964  -0.949  -0.943  -0.941  -0.915
 -0.789  -0.746  -0.743  -0.732  -0.703  -0.702  -0.684  -0.678
 -0.660  -0.618  -0.594  -0.581  -0.574  -0.562  -0.538  -0.533
 -0.518  -0.502  -0.495  -0.487  -0.473  -0.466  -0.461  -0.454
 -0.444  -0.429  -0.427  -0.426  -0.414  -0.411  -0.407  -0.399
 -0.397  -0.391  -0.382  -0.377  -0.370  -0.366  -0.361  -0.360
 -0.350  -0.343  -0.340  -0.337  -0.333  -0.332  -0.326  -0.315
 -0.312  -0.303  -0.301  -0.296  -0.290  -0.285  -0.281  -0.280
 -0.269  -0.267  -0.259  -0.251  -0.241  -0.223  -0.214  -0.204
 -0.185  -0.182  -0.177  -0.175  -0.163  -0.156  -0.147  -0.126
 -0.122

          Ground-State Mulliken Net Atomic Charges

     Atom                 Charge (a.u.)
  ----------------------------------------
      1 O                    -0.207905
      2 C                     0.217175
      3 C                    -0.081242
      4 C                    -0.085946
      5 C                     0.218798
      6 O                    -0.175017
      7 C                    -0.078613
      8 C                    -0.062814
      9 O                    -0.180035
     10 C                     0.198093
     11 C                    -0.107577
     12 C                    -0.097086
     13 C                     0.211406
     14 O                    -0.196362
     15 O                    -0.165299
     16 O                    -0.181740
     17 O                    -0.202446
     18 C                    -0.137763
     19 C                     0.024620
     20 C                    -0.151761
     21 C                    -0.143538
     22 C                     0.024676
     23 O                    -0.189757
     24 H                     0.113589
     25 H                     0.104686
     26 H                     0.082804
     27 H                     0.069576
     28 H                     0.090918
     29 H                     0.071706
     30 H                     0.071821
     31 H                     0.078272
     32 O                    -0.205022
     33 C                    -0.147965
     34 C                     0.025296
     35 C                    -0.141889
     36 C                    -0.142165
     37 C                     0.022493
     38 O                    -0.184528
     39 H                     0.092995
     40 H                     0.092757
     41 H                     0.083814
     42 H                     0.096723
     43 H                     0.084037
     44 H                     0.079357
     45 H                     0.084437
     46 H                     0.080512
     47 H                     0.091942
     48 H                     0.116842
     49 H                     0.087320
     50 H                     0.088332
     51 H                     0.083155
     52 H                     0.107767
     53 H                     0.095010
     54 H                     0.081810
     55 H                     0.081109
     56 H                     0.112621
  ----------------------------------------
  Sum of atomic charges =    -0.000000

                    Cartesian Multipole Moments
 -----------------------------------------------------------------
    Charge (ESU x 10^10)
                -0.0000
    Dipole Moment (Debye)
         X      -9.1774      Y      -2.3909      Z       0.6180
       Tot       9.5038
    Quadrupole Moments (Debye-Ang)
        XX    -176.0698     XY      -8.3716     YY    -152.6138
        XZ       5.5722     YZ      -0.9981     ZZ    -164.4625

 Total job time:  265.98s(wall), 12684.44s(cpu)
        *  Thank you very much for using Q-Chem.  Have a nice day.  *
