 Q-Chem 5.0, Q-Chem, Inc., Pleasanton, CA (2017)
 Q-Chem 5.0.1 for Intel X86 EM64T Linux

User input:
--------------------------------------------------------------
$molecule
0  1
O -3.94934 -3.66094 2.70899
C -3.26408 -4.56952 2.26188
C -3.36658 -6.02376 2.66595
C -4.66266 -6.76517 2.29943
C -5.63801 -6.02118 1.41441
O -5.57726 -6.51242 0.14145
C -5.18555 -7.88823 0.08688
C -3.94562 -8.04745 -0.78682
O -3.07226 -9.03755 -0.22127
C -2.76155 -10.07535 -1.03709
C -3.96995 -10.66651 -1.72335
C -3.65931 -11.50877 -2.96929
C -2.21328 -11.92943 -3.13883
O -1.81961 -12.84373 -3.84852
O -2.27855 -4.27193 1.37628
O -1.32157 -10.89873 -3.06043
O -1.8485 -10.79831 -0.66355
C 0.03909 -10.95191 -3.31217
C -4.67984 -11.72277 -0.84258
C -6.13971 -11.86866 -1.27102
C -5.96754 -12.52616 -2.62568
C -4.45399 -12.78228 -2.61439
O -4.14094 -12.95402 -1.25387
H -4.75474 -9.95318 -2.01962
H -3.97992 -11.02777 -3.91993
H -4.62 -11.50192 0.24603
H -6.60134 -12.60356 -0.57265
H -6.74738 -10.93817 -1.26964
H -6.54429 -13.47743 -2.62785
H -6.25524 -11.89963 -3.49776
H -4.2056 -13.63808 -3.28017
O -6.15412 -4.94668 1.67932
C -2.01996 -3.00459 0.89826
C -2.21874 -7.02177 2.65472
C -2.15547 -7.75806 3.9886
C -3.49362 -8.48118 3.94574
C -3.94499 -8.18926 2.48542
O -2.70729 -8.02509 1.8395
H -3.45884 -5.78243 3.75345
H -5.33681 -6.79164 3.18521
H -1.75494 -2.32539 1.73653
H -1.24185 -6.58822 2.35239
H -1.32871 -8.4998 3.90085
H -1.98923 -7.13544 4.89416
H -3.29182 -9.56238 4.11801
H -4.24921 -8.12428 4.67797
H -4.52123 -9.09553 2.23344
H -2.90905 -2.61015 0.36117
H -1.16649 -3.04981 0.19113
H 0.58659 -10.61758 -2.40695
H 0.28216 -10.26566 -4.14909
H 0.39058 -11.97356 -3.5699
H -4.10447 -8.04465 -1.88893
H -3.37881 -7.09696 -0.68214
H -5.91353 -8.29036 -0.64919
H -5.72009 -8.62501 0.71293
$end

$opt
CONSTRAINT
tors           1           2           3           4     +66.316
tors           3           4           5           6    +104.211
tors           4           5           6           7     +28.421
tors           5           6           7           8    -123.158
tors           6           7           8           9    +142.105
tors           7           8           9          10    +123.158
tors           8           9          10          11     -47.368
tors           9          10          11          12    +161.053
tors          11          12          13          14    +161.053
ENDCONSTRAINT
$end

$rem
JOBTYPE                   OPT
METHOD                    B3LYP
DFT_D                     d3_op
BASIS                     STO-3G
GEOM_OPT_MAX_CYCLES       100
GEOM_OPT_TOL_GRADIENT     300
GEOM_OPT_TOL_DISPLACEMENT 1200
GEOM_OPT_TOL_ENERGY       100
SYMMETRY                  False
THRESH                    12
SCF_CONVERGENCE           8
MAX_SUB_FILE_NUM          128
MEM_STATIC                400
MEM_TOTAL                 4000
$end
--------------------------------------------------------------

   16   -1509.9511161191      3.66E-09 Convergence criterion met
 Total energy in the final basis set = -1509.95111612
   14   -1510.0352655890      9.19E-09 Convergence criterion met
 Total energy in the final basis set = -1510.03526559
   14   -1510.0948988610      9.91E-09 Convergence criterion met
 Total energy in the final basis set = -1510.09489886
   14   -1510.1321396423      4.99E-09 Convergence criterion met
 Total energy in the final basis set = -1510.13213964
   14   -1510.1583279983      2.56E-09 Convergence criterion met
 Total energy in the final basis set = -1510.15832800
   14   -1510.1773681652      3.54E-09 Convergence criterion met
 Total energy in the final basis set = -1510.17736817
   14   -1510.1915985679      3.12E-09 Convergence criterion met
 Total energy in the final basis set = -1510.19159857
   13   -1510.2022648649      8.96E-09 Convergence criterion met
   12   -1510.2268338661      2.41E-09 Convergence criterion met
 Total energy in the final basis set = -1510.22683387
   12   -1510.2268517282      2.55E-09 Convergence criterion met
 Total energy in the final basis set = -1510.22685173
   11   -1510.2268667801      8.05E-09 Convergence criterion met
 Total energy in the final basis set = -1510.22686678
   11   -1510.2268735089      3.05E-09 Convergence criterion met
 Total energy in the final basis set = -1510.22687351
   10   -1510.2268759552      5.67E-09 Convergence criterion met
 Total energy in the final basis set = -1510.22687596
    9   -1510.2268769881      6.62E-09 Convergence criterion met
 Total energy in the final basis set = -1510.22687699

             Standard Nuclear Orientation (Angstroms)
    I     Atom           X                Y                Z
 ----------------------------------------------------------------
    1      O       4.8966322280     0.8437697683     1.6003983852
    2      C       4.4429027319     1.0652197722     0.4567010505
    3      C       4.5001587936     0.1002562463    -0.7886798420
    4      C       3.6291109541    -1.2372768521    -0.6113839438
    5      C       3.3068616701    -1.4812465549     0.9382782017
    6      O       2.0560534692    -1.2509893816     1.6045210476
    7      C       0.7964392694    -1.3551793488     0.8471746213
    8      C      -0.0023952341     0.0041334826     0.9657066675
    9      O      -0.6573465628     0.3065589830    -0.3275730034
   10      C      -2.0890061178     0.4787121696    -0.2474887687
   11      C      -2.8979716163    -0.6173418929     0.5648241710
   12      C      -4.3299780842    -0.1228501465     1.0020908521
   13      C      -4.5029397509     1.4286922992     1.1500235956
   14      O      -5.5819854653     2.0600810057     1.1563812556
   15      O       3.7347379318     2.2619119949     0.1132441195
   16      O      -3.2388589299     1.9935319863     1.5287650884
   17      O      -2.6237652509     1.2913833384    -1.0310988404
   18      C      -3.3511200939     3.4598476064     1.6927886706
   19      C      -3.3169146080    -1.7104080445    -0.5194853479
   20      C      -4.0627411078    -2.9110636960     0.1908532880
   21      C      -5.4999793440    -2.3039713240     0.4019280785
   22      C      -5.2624328923    -0.8197376165    -0.0799209932
   23      O      -4.3868739038    -1.0042809679    -1.2612917687
   24      H      -2.3265195287    -1.0460517707     1.4018896613
   25      H      -4.5648185176    -0.5383823730     2.0010007007
   26      H      -2.4995828174    -2.0058610172    -1.2061200999
   27      H      -4.0852363340    -3.7953467872    -0.4654486593
   28      H      -3.5778742759    -3.1893247605     1.1404215941
   29      H      -6.2428112456    -2.7999151229    -0.2432691735
   30      H      -5.8420271726    -2.3621145324     1.4475480099
   31      H      -6.1701668269    -0.2437919126    -0.3459809069
   32      O       4.2452631004    -1.8463440508     1.6827217162
   33      C       3.6361978315     3.1444707667     1.2981932531
   34      C       3.8309546078     0.7355928232    -2.0759191330
   35      C       4.2673296855    -0.1035457760    -3.3380943588
   36      C       3.3915994116    -1.3947151923    -3.1548122334
   37      C       2.6065872451    -1.0527208129    -1.8217982046
   38      O       2.3934800864     0.4067700463    -1.9081333976
   39      H       5.5607929031    -0.1598275070    -0.9579709825
   40      H       4.2838723034    -2.0965350652    -0.8477318146
   41      H       4.6363860614     3.4672757914     1.6531109715
   42      H       3.9658770411     1.8301162033    -2.1607892110
   43      H       4.0107868676     0.4321461536    -4.2656843728
   44      H       5.3480828466    -0.3173594400    -3.3401790054
   45      H       2.6794762257    -1.5203305332    -3.9858435137
   46      H       3.9926308677    -2.3132210127    -3.0623638490
   47      H       1.6423693303    -1.5861365510    -1.7571268195
   48      H       3.1121680739     2.6421149399     2.1369712018
   49      H       3.0558176052     4.0269527837     0.9718182822
   50      H      -2.8455461637     3.9647027826     0.8450015293
   51      H      -2.8521110973     3.7407616966     2.6399976623
   52      H      -4.4208935073     3.7503152996     1.7162962410
   53      H      -0.7021778673    -0.0115758187     1.8227245141
   54      H       0.7399929828     0.8134799144     1.1481319020
   55      H       0.2104296889    -2.1841784899     1.3014877785
   56      H       0.9393401172    -1.5861912250    -0.2185146350
 ----------------------------------------------------------------

    9   -1510.2268773912      3.00E-09 Convergence criterion met
 Total energy in the final basis set = -1510.22687739
 Final energy is   -1510.22687739121
 **  OPTIMIZATION CONVERGED  **

                    Orbital Energies (a.u.)
 --------------------------------------------------------------

 Alpha MOs
 -- Occupied --
-18.936 -18.934 -18.931 -18.922 -18.892 -18.892 -18.879 -18.878
-18.876 -18.875 -10.103 -10.103 -10.101 -10.098 -10.079 -10.076
-10.067 -10.066 -10.065 -10.063 -10.060 -10.059 -10.042 -10.041
-10.041 -10.039 -10.026 -10.024 -10.024 -10.022  -1.014  -1.013
 -1.006  -1.001  -0.974  -0.973  -0.941  -0.938  -0.935  -0.931
 -0.767  -0.764  -0.726  -0.724  -0.713  -0.708  -0.708  -0.662
 -0.661  -0.608  -0.601  -0.597  -0.552  -0.550  -0.543  -0.541
 -0.525  -0.514  -0.491  -0.479  -0.473  -0.464  -0.461  -0.442
 -0.437  -0.436  -0.430  -0.416  -0.413  -0.411  -0.408  -0.405
 -0.398  -0.393  -0.379  -0.376  -0.370  -0.357  -0.353  -0.350
 -0.347  -0.337  -0.336  -0.334  -0.328  -0.320  -0.319  -0.315
 -0.311  -0.311  -0.308  -0.301  -0.296  -0.293  -0.287  -0.280
 -0.274  -0.256  -0.253  -0.243  -0.239  -0.236  -0.231  -0.181
 -0.177  -0.173  -0.163  -0.160  -0.159  -0.152  -0.146  -0.144
 -0.141

          Ground-State Mulliken Net Atomic Charges

     Atom                 Charge (a.u.)
  ----------------------------------------
      1 O                    -0.206474
      2 C                     0.202961
      3 C                    -0.078292
      4 C                    -0.085669
      5 C                     0.206145
      6 O                    -0.176417
      7 C                    -0.050153
      8 C                    -0.048188
      9 O                    -0.176878
     10 C                     0.218539
     11 C                    -0.082506
     12 C                    -0.078689
     13 C                     0.216734
     14 O                    -0.212749
     15 O                    -0.168068
     16 O                    -0.174635
     17 O                    -0.192333
     18 C                    -0.135093
     19 C                     0.023653
     20 C                    -0.145487
     21 C                    -0.141961
     22 C                     0.025919
     23 O                    -0.185080
     24 H                     0.076663
     25 H                     0.083836
     26 H                     0.081480
     27 H                     0.078961
     28 H                     0.071995
     29 H                     0.079537
     30 H                     0.073954
     31 H                     0.091849
     32 O                    -0.191640
     33 C                    -0.128003
     34 C                     0.023653
     35 C                    -0.144718
     36 C                    -0.143134
     37 C                     0.022178
     38 O                    -0.185113
     39 H                     0.087087
     40 H                     0.085717
     41 H                     0.089319
     42 H                     0.093426
     43 H                     0.079371
     44 H                     0.074201
     45 H                     0.079103
     46 H                     0.073680
     47 H                     0.078751
     48 H                     0.089898
     49 H                     0.091477
     50 H                     0.090137
     51 H                     0.085321
     52 H                     0.102220
     53 H                     0.086647
     54 H                     0.092920
     55 H                     0.080667
     56 H                     0.093282
  ----------------------------------------
  Sum of atomic charges =    -0.000000

                    Cartesian Multipole Moments
 -----------------------------------------------------------------
    Charge (ESU x 10^10)
                -0.0000
    Dipole Moment (Debye)
         X       0.0714      Y      -1.5039      Z       0.1142
       Tot       1.5099
    Quadrupole Moments (Debye-Ang)
        XX    -171.8211     XY      14.3913     YY    -149.8154
        XZ     -24.0901     YZ       9.5334     ZZ    -163.5411

 Total job time:  93.50s(wall), 4454.79s(cpu)
        *  Thank you very much for using Q-Chem.  Have a nice day.  *
