 Q-Chem 5.0, Q-Chem, Inc., Pleasanton, CA (2017)
 Q-Chem 5.0.1 for Intel X86 EM64T Linux

User input:
--------------------------------------------------------------
$molecule
0  1
O -3.94934 -3.66094 2.70899
C -3.26408 -4.56952 2.26188
C -3.36658 -6.02376 2.66595
C -4.41631 -6.88207 1.94122
C -5.12384 -6.23632 0.77054
O -6.27965 -6.91085 0.49747
C -7.3571 -6.04973 0.1143
C -8.69071 -6.77104 0.27957
O -9.70399 -6.10977 -0.49429
C -10.94105 -6.66154 -0.42824
C -11.67239 -6.62609 -1.74906
C -12.51976 -7.87013 -2.05338
C -12.79892 -8.7835 -0.87672
O -12.8648 -8.433 0.29262
O -2.25515 -4.24041 1.40879
O -12.84044 -10.11174 -1.1603
O -11.50199 -6.60967 0.65502
C -13.03155 -11.1019 -0.21942
C -12.74023 -5.51775 -1.8065
C -13.04473 -5.16941 -3.26269
C -13.79333 -6.41225 -3.69723
C -13.85955 -7.17114 -2.36664
O -13.92274 -6.15383 -1.39688
H -10.92146 -6.44145 -2.55174
H -12.17103 -8.47604 -2.91921
H -12.45266 -4.60393 -1.24152
H -13.75512 -4.31175 -3.25248
H -12.16148 -4.90598 -3.88349
H -14.81262 -6.10996 -4.02565
H -13.29919 -7.01372 -4.49067
H -14.71356 -7.88519 -2.37421
O -4.86686 -5.14129 0.2858
C -1.99442 -2.96178 0.96216
C -2.09928 -6.83821 2.29176
C -1.99849 -8.09372 3.1596
C -3.10091 -8.93944 2.56179
C -3.5509 -8.03288 1.41359
O -2.3761 -7.37029 1.01945
H -3.44595 -6.04384 3.77595
H -5.20221 -7.20948 2.65954
H -1.75903 -2.29665 1.82029
H -1.15626 -6.25614 2.38496
H -1.02162 -8.57699 2.93
H -2.07136 -7.91917 4.25457
H -2.65018 -9.87447 2.16058
H -3.93787 -9.18618 3.25046
H -4.06568 -8.62836 0.62724
H -2.87145 -2.56474 0.40758
H -1.12085 -2.98648 0.27902
H -13.02436 -12.08968 -0.72413
H -14.01172 -10.96511 0.2856
H -12.21444 -11.0785 0.53301
H -8.57897 -7.79995 -0.13119
H -8.95495 -6.84197 1.35816
H -7.21261 -5.79575 -0.95951
H -7.40085 -5.10837 0.71023
$end

$opt
CONSTRAINT
tors           1           2           3           4     +85.263
tors           3           4           5           6    -161.053
tors           4           5           6           7    +142.105
tors           5           6           7           8    -161.053
tors           6           7           8           9    -161.053
tors           7           8           9          10    -180.000
tors           8           9          10          11    -142.105
tors           9          10          11          12    +142.105
tors          11          12          13          14     +28.421
ENDCONSTRAINT
$end

$rem
JOBTYPE                   OPT
METHOD                    B3LYP
DFT_D                     d3_op
BASIS                     STO-3G
GEOM_OPT_MAX_CYCLES       100
GEOM_OPT_TOL_GRADIENT     300
GEOM_OPT_TOL_DISPLACEMENT 1200
GEOM_OPT_TOL_ENERGY       100
SYMMETRY                  False
THRESH                    12
SCF_CONVERGENCE           8
MAX_SUB_FILE_NUM          128
MEM_STATIC                400
MEM_TOTAL                 4000
$end
--------------------------------------------------------------

   15   -1510.1071949134      8.06E-09 Convergence criterion met
 Total energy in the final basis set = -1510.10719491
   14   -1510.1812230804      5.30E-09 Convergence criterion met
 Total energy in the final basis set = -1510.18122308
   14   -1510.2206825437      4.92E-09 Convergence criterion met
 Total energy in the final basis set = -1510.22068254
   14   -1510.2405090208      6.68E-09 Convergence criterion met
 Total energy in the final basis set = -1510.24050902
   13   -1510.2490094459      7.81E-09 Convergence criterion met
 Total energy in the final basis set = -1510.24900945
   14   -1510.2528904226      2.45E-09 Convergence criterion met
 Total energy in the final basis set = -1510.25289042
   13   -1510.2549570007      5.10E-09 Convergence criterion met
 Total energy in the final basis set = -1510.25495700
   13   -1510.2557065420      6.72E-09 Convergence criterion met
   11   -1510.2571164090      9.78E-09 Convergence criterion met
 Total energy in the final basis set = -1510.25711641
   11   -1510.2571434549      8.33E-09 Convergence criterion met
 Total energy in the final basis set = -1510.25714345
    9   -1510.2571492043      7.95E-09 Convergence criterion met
 Total energy in the final basis set = -1510.25714920
    9   -1510.2571520839      5.77E-09 Convergence criterion met
 Total energy in the final basis set = -1510.25715208
    9   -1510.2571533139      4.38E-09 Convergence criterion met
 Total energy in the final basis set = -1510.25715331
    9   -1510.2571544125      3.19E-09 Convergence criterion met
 Total energy in the final basis set = -1510.25715441

             Standard Nuclear Orientation (Angstroms)
    I     Atom           X                Y                Z
 ----------------------------------------------------------------
    1      O      -5.0737871631    -2.2526290221     1.2440014728
    2      C      -5.4786012348    -1.3357532986     0.4956083660
    3      C      -5.3865387667     0.2086918886     0.7920707613
    4      C      -4.0034706771     0.8641807141     0.3758396721
    5      C      -3.0370300176    -0.1370939979    -0.3467938274
    6      O      -1.6932573166     0.3716451389    -0.2904109736
    7      C      -0.7329570655    -0.7422598585    -0.0833569680
    8      C       0.5889269937    -0.0926035122     0.4478626093
    9      O       1.6681003369    -1.0827641304     0.2190540043
   10      C       2.9321788051    -0.5493775912     0.6887639341
   11      C       4.0621632972    -0.9974473911    -0.3082643321
   12      C       5.1942832965     0.0700247760    -0.6005932706
   13      C       4.9040252498     1.5801537699    -0.2904805536
   14      O       4.1532026329     2.1164886629     0.5498822101
   15      O      -6.1848636515    -1.5458984538    -0.7313924573
   16      O       5.7433740811     2.3312491887    -1.1849358533
   17      O       3.0590515218     0.1014829394     1.7450134233
   18      C       5.5796859032     3.7811928970    -0.9343231193
   19      C       4.9308613319    -2.1216888474     0.4159591790
   20      C       5.9481095478    -2.7643850680    -0.6093088799
   21      C       7.0695762121    -1.6607322247    -0.6673253699
   22      C       6.4187743443    -0.5382962281     0.2303778126
   23      O       5.7825319583    -1.3128760755     1.3172914199
   24      H       3.5885423130    -1.3597776691    -1.2368729890
   25      H       5.4452738806     0.0380935234    -1.6760230163
   26      H       4.3325972217    -2.8494087336     0.9980775227
   27      H       6.3361381639    -3.7196183741    -0.2217841578
   28      H       5.4808386368    -2.9469044787    -1.5904825640
   29      H       8.0080836650    -2.0176454500    -0.2132617569
   30      H       7.2800339362    -1.3136076293    -1.6913594673
   31      H       7.1208981151     0.2118598238     0.6430782203
   32      O      -3.3366729956    -1.2606444863    -0.8092284531
   33      C      -6.2069971846    -2.9897361456    -1.0536023287
   34      C      -6.4017113001     1.0889638314    -0.0522685562
   35      C      -6.5370021199     2.4982961488     0.6496844686
   36      C      -5.1620353409     3.1607135321     0.2690373248
   37      C      -4.5038032113     2.0179543061    -0.6011170155
   38      O      -5.6526799713     1.3956034914    -1.2939759787
   39      H      -5.5495795096     0.3383520996     1.8771985269
   40      H      -3.4647646247     1.2806281465     1.2453049550
   41      H      -6.6898051208    -3.5831804496    -0.2501317324
   42      H      -7.3562533634     0.5831798175    -0.2917391336
   43      H      -7.3853853135     3.0576325688     0.2243595248
   44      H      -6.6820234695     2.4093730118     1.7381809335
   45      H      -5.3034110627     4.0705336744    -0.3359804960
   46      H      -4.5518436791     3.4153660563     1.1505933371
   47      H      -3.7442537805     2.3599777607    -1.3310731432
   48      H      -5.1806613714    -3.3788309235    -1.2137202039
   49      H      -6.7898132647    -3.0859399321    -1.9881169620
   50      H       6.2605382971     4.2919513481    -1.6398156232
   51      H       5.8522922835     4.0515207744     0.1063513411
   52      H       4.5376019645     4.1130731822    -1.1200878331
   53      H       0.7884061778     0.8411336128    -0.1244170717
   54      H       0.4947683495     0.1757887874     1.5229846060
   55      H      -0.5206251779    -1.2739938890    -1.0387068196
   56      H      -1.1305416133    -1.4852572227     0.6400731659
 ----------------------------------------------------------------

    9   -1510.2571549150      2.26E-09 Convergence criterion met
 Total energy in the final basis set = -1510.25715492
 Final energy is   -1510.25715491501
 **  OPTIMIZATION CONVERGED  **

                    Orbital Energies (a.u.)
 --------------------------------------------------------------

 Alpha MOs
 -- Occupied --
-18.931 -18.928 -18.922 -18.915 -18.892 -18.892 -18.887 -18.887
-18.879 -18.857 -10.106 -10.099 -10.098 -10.090 -10.076 -10.073
-10.064 -10.063 -10.063 -10.061 -10.057 -10.053 -10.040 -10.039
-10.039 -10.033 -10.023 -10.022 -10.020 -10.018  -1.016  -1.012
 -1.003  -0.997  -0.974  -0.969  -0.944  -0.937  -0.931  -0.923
 -0.765  -0.762  -0.727  -0.722  -0.714  -0.707  -0.697  -0.663
 -0.651  -0.613  -0.597  -0.577  -0.547  -0.545  -0.541  -0.536
 -0.519  -0.511  -0.481  -0.469  -0.461  -0.459  -0.451  -0.445
 -0.437  -0.434  -0.432  -0.412  -0.411  -0.407  -0.401  -0.400
 -0.392  -0.381  -0.373  -0.366  -0.363  -0.357  -0.354  -0.346
 -0.343  -0.336  -0.333  -0.331  -0.329  -0.324  -0.322  -0.315
 -0.311  -0.306  -0.304  -0.301  -0.297  -0.290  -0.281  -0.275
 -0.272  -0.258  -0.254  -0.245  -0.241  -0.237  -0.232  -0.178
 -0.178  -0.170  -0.163  -0.161  -0.160  -0.147  -0.145  -0.140
 -0.138

          Ground-State Mulliken Net Atomic Charges

     Atom                 Charge (a.u.)
  ----------------------------------------
      1 O                    -0.223545
      2 C                     0.213098
      3 C                    -0.081370
      4 C                    -0.078841
      5 C                     0.215426
      6 O                    -0.182135
      7 C                    -0.044970
      8 C                    -0.046231
      9 O                    -0.187281
     10 C                     0.211625
     11 C                    -0.080045
     12 C                    -0.080642
     13 C                     0.205196
     14 O                    -0.204139
     15 O                    -0.167952
     16 O                    -0.173971
     17 O                    -0.182906
     18 C                    -0.129539
     19 C                     0.026258
     20 C                    -0.145115
     21 C                    -0.141961
     22 C                     0.027333
     23 O                    -0.185271
     24 H                     0.086002
     25 H                     0.086564
     26 H                     0.084139
     27 H                     0.079004
     28 H                     0.074403
     29 H                     0.078584
     30 H                     0.074999
     31 H                     0.085167
     32 O                    -0.196949
     33 C                    -0.126872
     34 C                     0.025864
     35 C                    -0.144285
     36 C                    -0.143812
     37 C                     0.025845
     38 O                    -0.187087
     39 H                     0.082720
     40 H                     0.086681
     41 H                     0.085923
     42 H                     0.089518
     43 H                     0.077658
     44 H                     0.073296
     45 H                     0.078014
     46 H                     0.073893
     47 H                     0.083901
     48 H                     0.092955
     49 H                     0.087933
     50 H                     0.089479
     51 H                     0.089393
     52 H                     0.087730
     53 H                     0.085930
     54 H                     0.090685
     55 H                     0.089811
     56 H                     0.089893
  ----------------------------------------
  Sum of atomic charges =    -0.000000

                    Cartesian Multipole Moments
 -----------------------------------------------------------------
    Charge (ESU x 10^10)
                -0.0000
    Dipole Moment (Debye)
         X       1.0688      Y       1.1637      Z      -1.7007
       Tot       2.3214
    Quadrupole Moments (Debye-Ang)
        XX    -146.5130     XY      -5.3952     YY    -151.2435
        XZ     -17.6025     YZ       3.4607     ZZ    -166.1935

 Total job time:  81.25s(wall), 3856.72s(cpu)
        *  Thank you very much for using Q-Chem.  Have a nice day.  *
