 Q-Chem 5.0, Q-Chem, Inc., Pleasanton, CA (2017)
 Q-Chem 5.0.1 for Intel X86 EM64T Linux

User input:
--------------------------------------------------------------
$molecule
0  1
O -5.0737871631 -2.2526290221 1.2440014728
C -5.4786012348 -1.3357532986 0.495608366
C -5.3865387667 0.2086918886 0.7920707613
C -4.0034706771 0.8641807141 0.3758396721
C -3.0370300176 -0.1370939979 -0.3467938274
O -1.6932573166 0.3716451389 -0.2904109736
C -0.7329570655 -0.7422598585 -0.083356968
C 0.5889269937 -0.0926035122 0.4478626093
O 1.6681003369 -1.0827641304 0.2190540043
C 2.9321788051 -0.5493775912 0.6887639341
C 4.0621632972 -0.9974473911 -0.3082643321
C 5.1942832965 0.070024776 -0.6005932706
C 4.9040252498 1.5801537699 -0.2904805536
O 4.1532026329 2.1164886629 0.5498822101
O -6.1848636515 -1.5458984538 -0.7313924573
O 5.7433740811 2.3312491887 -1.1849358533
O 3.0590515218 0.1014829394 1.7450134233
C 5.5796859032 3.781192897 -0.9343231193
C 4.9308613319 -2.1216888474 0.415959179
C 5.9481095478 -2.764385068 -0.6093088799
C 7.0695762121 -1.6607322247 -0.6673253699
C 6.4187743443 -0.5382962281 0.2303778126
O 5.7825319583 -1.3128760755 1.3172914199
H 3.588542313 -1.3597776691 -1.236872989
H 5.4452738806 0.0380935234 -1.6760230163
H 4.3325972217 -2.8494087336 0.9980775227
H 6.3361381639 -3.7196183741 -0.2217841578
H 5.4808386368 -2.9469044787 -1.590482564
H 8.008083665 -2.01764545 -0.2132617569
H 7.2800339362 -1.3136076293 -1.6913594673
H 7.1208981151 0.2118598238 0.6430782203
O -3.3366729956 -1.2606444863 -0.8092284531
C -6.2069971846 -2.9897361456 -1.0536023287
C -6.4017113001 1.0889638314 -0.0522685562
C -6.5370021199 2.4982961488 0.6496844686
C -5.1620353409 3.1607135321 0.2690373248
C -4.5038032113 2.0179543061 -0.6011170155
O -5.6526799713 1.3956034914 -1.2939759787
H -5.5495795096 0.3383520996 1.8771985269
H -3.4647646247 1.2806281465 1.245304955
H -6.6898051208 -3.5831804496 -0.2501317324
H -7.3562533634 0.5831798175 -0.2917391336
H -7.3853853135 3.0576325688 0.2243595248
H -6.6820234695 2.4093730118 1.7381809335
H -5.3034110627 4.0705336744 -0.335980496
H -4.5518436791 3.4153660563 1.1505933371
H -3.7442537805 2.3599777607 -1.3310731432
H -5.1806613714 -3.3788309235 -1.2137202039
H -6.7898132647 -3.0859399321 -1.988116962
H 6.2605382971 4.2919513481 -1.6398156232
H 5.8522922835 4.0515207744 0.1063513411
H 4.5376019645 4.1130731822 -1.1200878331
H 0.7884061778 0.8411336128 -0.1244170717
H 0.4947683495 0.1757887874 1.522984606
H -0.5206251779 -1.273993889 -1.0387068196
H -1.1305416133 -1.4852572227 0.6400731659
$end

$rem
JOBTYPE                   OPT
METHOD                    B3LYP
DFT_D                     d3_op
BASIS                     STO-3G
GEOM_OPT_MAX_CYCLES       100
GEOM_OPT_TOL_GRADIENT     300
GEOM_OPT_TOL_DISPLACEMENT 1200
GEOM_OPT_TOL_ENERGY       100
SYMMETRY                  False
THRESH                    12
SCF_CONVERGENCE           8
MAX_SUB_FILE_NUM          128
MEM_STATIC                400
MEM_TOTAL                 4000
$end
--------------------------------------------------------------

   16   -1510.2571764097      4.23E-09 Convergence criterion met
 Total energy in the final basis set = -1510.25717641
   13   -1510.2632372001      6.64E-09 Convergence criterion met
 Total energy in the final basis set = -1510.26323720
   13   -1510.2684263556      4.37E-09 Convergence criterion met
 Total energy in the final basis set = -1510.26842636
   13   -1510.2726061773      7.52E-09 Convergence criterion met
 Total energy in the final basis set = -1510.27260618
   13   -1510.2750427700      7.60E-09 Convergence criterion met
 Total energy in the final basis set = -1510.27504277
   13   -1510.2765290316      4.87E-09 Convergence criterion met
 Total energy in the final basis set = -1510.27652903
   13   -1510.2775613288      2.53E-09 Convergence criterion met
 Total energy in the final basis set = -1510.27756133
   13   -1510.2786670160      3.90E-09 Convergence criterion met
   13   -1510.2856196016      7.93E-09 Convergence criterion met
 Total energy in the final basis set = -1510.28561960
   12   -1510.2856206974      9.20E-09 Convergence criterion met
 Total energy in the final basis set = -1510.28562070
   13   -1510.2855969782      4.96E-09 Convergence criterion met
 Total energy in the final basis set = -1510.28559698
   12   -1510.2855864687      5.19E-09 Convergence criterion met
 Total energy in the final basis set = -1510.28558647
   11   -1510.2856051299      8.07E-09 Convergence criterion met
 Total energy in the final basis set = -1510.28560513
   11   -1510.2855961005      4.60E-09 Convergence criterion met
 Total energy in the final basis set = -1510.28559610

             Standard Nuclear Orientation (Angstroms)
    I     Atom           X                Y                Z
 ----------------------------------------------------------------
    1      O       5.7169017206    -1.8505837435     1.4425868669
    2      C       5.2539321595    -0.7261189868     1.1526057871
    3      C       5.4484120114     0.0440417305    -0.2057131599
    4      C       4.1617418411     0.0788421568    -1.1311957800
    5      C       2.9283122573    -0.6512594696    -0.4979786187
    6      O       1.7557961895    -0.2885627368    -1.2280530072
    7      C       0.5634508702    -0.9627405683    -0.6531044773
    8      C      -0.6821287195    -0.3110143973    -1.3334801229
    9      O      -1.8697476625    -1.0094301745    -0.7865214485
   10      C      -3.0629082896    -0.3913579875    -1.2973706974
   11      C      -4.3010703641    -1.1130259777    -0.6461763901
   12      C      -4.6304318280    -0.6491765185     0.8311173645
   13      C      -3.6775376361     0.4817255866     1.3419961064
   14      O      -2.8348295080     1.1221117772     0.6732725042
   15      O       4.5493374488     0.1207416727     2.0710803834
   16      O      -3.9350643713     0.7039210346     2.7289295325
   17      O      -3.0763859966     0.4768659645    -2.1946754037
   18      C      -3.0684387128     1.7931880307     3.2382907537
   19      C      -5.6437759400    -0.7212187108    -1.3926269436
   20      C      -6.7546001733    -1.7743999045    -1.0068336474
   21      C      -7.0819238376    -1.3411715487     0.4710344545
   22      C      -6.1158821945    -0.1040755448     0.6472885587
   23      O      -6.0807436230     0.5125658133    -0.6963483115
   24      H      -4.1173608536    -2.2020380126    -0.6764704732
   25      H      -4.5987232822    -1.4900917681     1.5468369629
   26      H      -5.5178923998    -0.5256009507    -2.4751198605
   27      H      -7.6334192301    -1.6666097145    -1.6623088349
   28      H      -6.3866679299    -2.8106034189    -1.0758347912
   29      H      -8.1323651477    -1.0272762717     0.5786323162
   30      H      -6.8737129171    -2.1361624420     1.2047463755
   31      H      -6.4269457850     0.6345046420     1.4118369133
   32      O       2.9303026985    -1.4397537058     0.4737742652
   33      C       4.2940380070    -0.6153926951     3.3280334941
   34      C       5.6982000446     1.6004763440    -0.0004075884
   35      C       6.3013640870     2.1861335180    -1.3392656552
   36      C       5.0249656204     2.2190009876    -2.2591469811
   37      C       3.9291220533     1.6434934280    -1.2789665105
   38      O       4.3324367753     2.1722038509     0.0429512535
   39      H       6.2913121436    -0.4354380336    -0.7337408335
   40      H       4.3621566892    -0.3855041192    -2.1147253775
   41      H       5.2335417785    -0.9875272233     3.7855767875
   42      H       6.2544043487     1.8581874491     0.9211678864
   43      H       6.7034789210     3.1977792246    -1.1709207622
   44      H       7.1038613290     1.5498715487    -1.7451172693
   45      H       4.7684214711     3.2476913491    -2.5586420291
   46      H       5.1356111551     1.6043187933    -3.1669592524
   47      H       2.8831651850     1.9210076077    -1.5135010148
   48      H       3.6199114155    -1.4793573198     3.1545344690
   49      H       3.8065850888     0.1038709218     4.0115881674
   50      H      -3.3355037022     1.9215882580     4.3032783984
   51      H      -3.2437957470     2.7425045089     2.6923143309
   52      H      -1.9940613715     1.5309129363     3.1535661629
   53      H      -0.7251622772     0.7755270153    -1.1023202032
   54      H      -0.6219972497    -0.4271278218    -2.4381336386
   55      H       0.5239672331    -0.8243032264     0.4487336869
   56      H       0.5925033182    -2.0547936997    -0.8616384338
 ----------------------------------------------------------------

    9   -1510.2855963998      8.06E-09 Convergence criterion met
 Total energy in the final basis set = -1510.28559640
 Final energy is   -1510.28559639985
 **  OPTIMIZATION CONVERGED  **

                    Orbital Energies (a.u.)
 --------------------------------------------------------------

 Alpha MOs
 -- Occupied --
-18.944 -18.940 -18.922 -18.918 -18.888 -18.886 -18.885 -18.884
-18.865 -18.857 -10.107 -10.105 -10.094 -10.087 -10.075 -10.070
-10.069 -10.063 -10.058 -10.058 -10.057 -10.051 -10.042 -10.039
-10.035 -10.031 -10.022 -10.020 -10.019 -10.017  -1.020  -1.019
 -1.002  -0.995  -0.971  -0.968  -0.944  -0.943  -0.928  -0.921
 -0.764  -0.761  -0.727  -0.722  -0.714  -0.706  -0.695  -0.667
 -0.650  -0.613  -0.596  -0.577  -0.546  -0.543  -0.539  -0.535
 -0.516  -0.510  -0.483  -0.473  -0.462  -0.456  -0.453  -0.448
 -0.436  -0.432  -0.431  -0.417  -0.414  -0.406  -0.401  -0.400
 -0.391  -0.380  -0.377  -0.363  -0.362  -0.357  -0.350  -0.342
 -0.340  -0.337  -0.334  -0.330  -0.328  -0.326  -0.320  -0.313
 -0.312  -0.305  -0.304  -0.300  -0.296  -0.280  -0.277  -0.275
 -0.272  -0.261  -0.258  -0.248  -0.240  -0.235  -0.232  -0.186
 -0.184  -0.169  -0.161  -0.161  -0.159  -0.146  -0.144  -0.142
 -0.137

          Ground-State Mulliken Net Atomic Charges

     Atom                 Charge (a.u.)
  ----------------------------------------
      1 O                    -0.219400
      2 C                     0.213023
      3 C                    -0.081517
      4 C                    -0.078062
      5 C                     0.215137
      6 O                    -0.172766
      7 C                    -0.045288
      8 C                    -0.045445
      9 O                    -0.180045
     10 C                     0.216582
     11 C                    -0.081227
     12 C                    -0.078280
     13 C                     0.214443
     14 O                    -0.207620
     15 O                    -0.171170
     16 O                    -0.168711
     17 O                    -0.214051
     18 C                    -0.128306
     19 C                     0.025076
     20 C                    -0.144064
     21 C                    -0.143678
     22 C                     0.025441
     23 O                    -0.188405
     24 H                     0.083774
     25 H                     0.087210
     26 H                     0.089475
     27 H                     0.078404
     28 H                     0.073330
     29 H                     0.078528
     30 H                     0.073834
     31 H                     0.084862
     32 O                    -0.208231
     33 C                    -0.127954
     34 C                     0.026514
     35 C                    -0.144366
     36 C                    -0.143820
     37 C                     0.024501
     38 O                    -0.187506
     39 H                     0.082693
     40 H                     0.085909
     41 H                     0.086219
     42 H                     0.085170
     43 H                     0.077416
     44 H                     0.073315
     45 H                     0.078143
     46 H                     0.073147
     47 H                     0.088893
     48 H                     0.090965
     49 H                     0.086243
     50 H                     0.092428
     51 H                     0.092250
     52 H                     0.090610
     53 H                     0.096642
     54 H                     0.087511
     55 H                     0.093958
     56 H                     0.088265
  ----------------------------------------
  Sum of atomic charges =     0.000000

                    Cartesian Multipole Moments
 -----------------------------------------------------------------
    Charge (ESU x 10^10)
                 0.0000
    Dipole Moment (Debye)
         X      -0.9635      Y      -0.7593      Z       0.5836
       Tot       1.3585
    Quadrupole Moments (Debye-Ang)
        XX    -152.4711     XY      17.5955     YY    -163.0756
        XZ     -15.5152     YZ       6.6861     ZZ    -152.0538

 Total job time:  98.58s(wall), 4687.72s(cpu)
        *  Thank you very much for using Q-Chem.  Have a nice day.  *
