 Q-Chem 5.0, Q-Chem, Inc., Pleasanton, CA (2017)
 Q-Chem 5.0.1 for Intel X86 EM64T Linux

User input:
--------------------------------------------------------------
$molecule
0  1
O -3.94934 -3.66094 2.70899
C -3.26408 -4.56952 2.26188
C -3.36658 -6.02376 2.66595
C -3.63629 -7.04588 1.54953
C -3.59671 -6.52161 0.1312
O -3.9461 -5.20135 0.11461
C -2.94674 -4.36171 -0.47321
C -3.55817 -3.02688 -0.88612
O -4.50183 -3.22899 -1.94986
C -4.2568 -4.2946 -2.75208
C -4.12636 -3.91699 -4.20846
C -5.34341 -4.26347 -5.07853
C -6.61852 -4.59445 -4.32938
O -7.26412 -3.81099 -3.64824
O -1.94223 -4.20895 2.19324
O -7.10493 -5.85011 -4.51334
O -4.53315 -5.4412 -2.44193
C -8.25945 -6.32949 -3.93089
C -4.00131 -2.40553 -4.5246
C -3.31424 -2.21646 -5.87736
C -4.40359 -2.68813 -6.8193
C -5.5412 -2.93444 -5.82272
O -5.31561 -1.9877 -4.80501
H -3.19785 -4.41747 -4.56466
H -5.1186 -5.12226 -5.75029
H -3.45498 -1.82878 -3.74761
H -3.17506 -1.12048 -6.01922
H -2.33309 -2.72509 -5.99333
H -4.6569 -1.85322 -7.50973
H -4.16522 -3.60534 -7.40036
H -6.52922 -2.8818 -6.33144
O -3.50999 -7.2222 -0.86654
C -1.40709 -2.9283 2.25589
C -2.06517 -6.61593 3.26532
C -2.37069 -7.86632 4.09274
C -2.64761 -8.86576 2.99456
C -2.43112 -7.98866 1.76084
O -1.38999 -7.1271 2.14624
H -4.14907 -6.06449 3.45663
H -4.58855 -7.60973 1.6622
H -0.75059 -2.85302 3.14628
H -1.50224 -5.89352 3.89635
H -1.44046 -8.17382 4.62201
H -3.18966 -7.72919 4.83114
H -1.85699 -9.64908 3.02445
H -3.65043 -9.34373 3.0249
H -2.22392 -8.6337 0.87859
H -2.1831 -2.13621 2.31386
H -0.79131 -2.73905 1.35239
H -8.41836 -7.38016 -4.24917
H -9.1321 -5.72193 -4.25282
H -8.16892 -6.30078 -2.82382
H -4.04665 -2.53214 -0.02083
H -2.7516 -2.36145 -1.26234
H -2.44741 -4.85502 -1.33793
H -2.03098 -4.23274 0.07656
$end

$opt
CONSTRAINT
tors           1           2           3           4    +123.158
tors           3           4           5           6     -28.421
tors           4           5           6           7    +123.158
tors           5           6           7           8    +161.053
tors           6           7           8           9     -66.316
tors           7           8           9          10     -28.421
tors           8           9          10          11    -123.158
tors           9          10          11          12    -104.211
tors          11          12          13          14     +66.316
ENDCONSTRAINT
$end

$rem
JOBTYPE                   OPT
METHOD                    B3LYP
DFT_D                     d3_op
BASIS                     STO-3G
GEOM_OPT_MAX_CYCLES       100
GEOM_OPT_TOL_GRADIENT     300
GEOM_OPT_TOL_DISPLACEMENT 1200
GEOM_OPT_TOL_ENERGY       100
SYMMETRY                  False
THRESH                    12
SCF_CONVERGENCE           8
MAX_SUB_FILE_NUM          128
MEM_STATIC                400
MEM_TOTAL                 4000
$end
--------------------------------------------------------------

   15   -1510.0715139649      8.33E-09 Convergence criterion met
 Total energy in the final basis set = -1510.07151396
   14   -1510.1482026999      9.57E-09 Convergence criterion met
 Total energy in the final basis set = -1510.14820270
   15   -1510.1911506010      1.81E-09 Convergence criterion met
 Total energy in the final basis set = -1510.19115060
   14   -1510.2160688012      8.47E-09 Convergence criterion met
 Total energy in the final basis set = -1510.21606880
   14   -1510.2266437339      5.40E-09 Convergence criterion met
 Total energy in the final basis set = -1510.22664373
   14   -1510.2343923364      5.60E-09 Convergence criterion met
 Total energy in the final basis set = -1510.23439234
   13   -1510.2382842129      3.38E-09 Convergence criterion met
 Total energy in the final basis set = -1510.23828421
   13   -1510.2406415907      6.03E-09 Convergence criterion met
    9   -1510.2425868619      8.99E-09 Convergence criterion met
 Total energy in the final basis set = -1510.24258686
    9   -1510.2425925339      9.10E-09 Convergence criterion met
 Total energy in the final basis set = -1510.24259253
    9   -1510.2426000718      6.62E-09 Convergence criterion met
 Total energy in the final basis set = -1510.24260007
    9   -1510.2426052433      6.14E-09 Convergence criterion met
 Total energy in the final basis set = -1510.24260524
   10   -1510.2426070637      7.40E-09 Convergence criterion met
 Total energy in the final basis set = -1510.24260706
    9   -1510.2426058401      9.60E-09 Convergence criterion met
 Total energy in the final basis set = -1510.24260584

             Standard Nuclear Orientation (Angstroms)
    I     Atom           X                Y                Z
 ----------------------------------------------------------------
    1      O      -3.4592855659    -1.6886513628     2.3669495428
    2      C      -3.6101130761    -1.2256945294     1.2141645815
    3      C      -4.2825006303     0.1474460497     0.8745414733
    4      C      -3.4915663048     1.2440528392     0.0463628791
    5      C      -1.9995094829     0.9654446523    -0.3928230120
    6      O      -1.2885296532     0.0761875286     0.4999076933
    7      C      -0.7961713649    -1.0738316923    -0.3046912492
    8      C       0.3561435595    -1.7966414522     0.4694964184
    9      O       1.6346348234    -1.0831470123     0.6925543147
   10      C       1.9589266829    -0.0991876352    -0.3102095597
   11      C       3.3627766679    -0.3809401771    -0.9801574534
   12      C       4.5096033232     0.5959086108    -0.4658635641
   13      C       4.0012250348     1.6020052657     0.6221258063
   14      O       3.6041770451     1.3400782392     1.7780211629
   15      O      -3.4644275460    -2.0369828946     0.0224775736
   16      O       4.0502200052     2.9229409451     0.0693262720
   17      O       1.2355532797     0.8795668819    -0.5955812282
   18      C       3.5113150096     3.8977413194     1.0460228748
   19      C       3.9770802073    -1.7901182703    -0.6037229129
   20      C       5.1495027546    -2.1069901520    -1.6150881394
   21      C       6.2822428760    -1.1565273541    -1.0767616419
   22      C       5.5421923165    -0.4556761656     0.1301186445
   23      O       4.6779959343    -1.5262167714     0.6742665516
   24      H       3.2223224732    -0.2673636207    -2.0709381270
   25      H       4.9449081313     1.1763488255    -1.2979152565
   26      H       3.2292484106    -2.5948182757    -0.4734000415
   27      H       5.4436692103    -3.1663242935    -1.5461370671
   28      H       4.8691728060    -1.8858717230    -2.6573882652
   29      H       7.1502838373    -1.7291808929    -0.7131938114
   30      H       6.6280213386    -0.4326260915    -1.8320397713
   31      H       6.2027380536    -0.0528900491     0.9220482515
   32      O      -1.5029863866     1.4320213795    -1.4405208495
   33      C      -3.2609155716    -3.4582557570     0.4042441847
   34      C      -5.5306916093    -0.0911287655    -0.0911135258
   35      C      -6.4937714719     1.1578248925     0.0023787624
   36      C      -5.6967001278     2.2204496973    -0.8413583908
   37      C      -4.4157261867     1.3887180168    -1.2393547889
   38      O      -4.9400014911     0.0190503586    -1.4423595591
   39      H      -4.6000564999     0.5678197363     1.8451440820
   40      H      -3.4936057270     2.1918065621     0.6176750543
   41      H      -4.1760392946    -4.0333388349     0.1597959140
   42      H      -6.0238001921    -1.0740971811     0.0368271940
   43      H      -7.4675374004     0.9244473241    -0.4568139449
   44      H      -6.6618388251     1.4765313273     1.0435591779
   45      H      -6.2554269201     2.5241376451    -1.7409219342
   46      H      -5.4408547781     3.1212341642    -0.2611132893
   47      H      -3.8691262693     1.7404607833    -2.1361618632
   48      H      -3.0573056053    -3.5194711065     1.4923827857
   49      H      -2.4096391811    -3.8659610491    -0.1727168248
   50      H       3.6246286975     4.8933406873     0.5792264717
   51      H       4.0692934591     3.8681268698     2.0040266736
   52      H       2.4391532787     3.7068115937     1.2570720635
   53      H      -0.0077946038    -2.0758571218     1.4815065939
   54      H       0.5751955310    -2.7414274620    -0.0831328281
   55      H      -0.4404146297    -0.7319900109    -1.2994983425
   56      H      -1.6547118185    -1.7683038176    -0.4459306787
 ----------------------------------------------------------------

    9   -1510.2426064003      3.25E-09 Convergence criterion met
 Total energy in the final basis set = -1510.24260640
 Final energy is   -1510.24260640032
 **  OPTIMIZATION CONVERGED  **

                    Orbital Energies (a.u.)
 --------------------------------------------------------------

 Alpha MOs
 -- Occupied --
-18.938 -18.928 -18.910 -18.909 -18.890 -18.889 -18.886 -18.884
-18.883 -18.867 -10.104 -10.102 -10.099 -10.091 -10.072 -10.063
-10.063 -10.059 -10.058 -10.057 -10.057 -10.056 -10.042 -10.038
-10.033 -10.032 -10.022 -10.021 -10.018 -10.017  -1.016  -1.006
 -1.003  -0.997  -0.973  -0.966  -0.940  -0.935  -0.928  -0.928
 -0.764  -0.758  -0.725  -0.720  -0.710  -0.705  -0.696  -0.663
 -0.657  -0.608  -0.598  -0.582  -0.545  -0.543  -0.539  -0.534
 -0.516  -0.505  -0.484  -0.470  -0.468  -0.454  -0.449  -0.436
 -0.435  -0.429  -0.429  -0.420  -0.411  -0.406  -0.404  -0.399
 -0.390  -0.382  -0.373  -0.363  -0.359  -0.354  -0.353  -0.352
 -0.342  -0.341  -0.337  -0.333  -0.328  -0.325  -0.325  -0.311
 -0.307  -0.305  -0.304  -0.302  -0.296  -0.287  -0.277  -0.274
 -0.271  -0.252  -0.248  -0.243  -0.236  -0.232  -0.226  -0.185
 -0.170  -0.165  -0.160  -0.156  -0.154  -0.147  -0.146  -0.142
 -0.139

          Ground-State Mulliken Net Atomic Charges

     Atom                 Charge (a.u.)
  ----------------------------------------
      1 O                    -0.209427
      2 C                     0.213155
      3 C                    -0.078830
      4 C                    -0.079919
      5 C                     0.220523
      6 O                    -0.183322
      7 C                    -0.063999
      8 C                    -0.045969
      9 O                    -0.180653
     10 C                     0.215695
     11 C                    -0.079513
     12 C                    -0.079338
     13 C                     0.205706
     14 O                    -0.208456
     15 O                    -0.171165
     16 O                    -0.168864
     17 O                    -0.188696
     18 C                    -0.128852
     19 C                     0.025894
     20 C                    -0.144799
     21 C                    -0.143798
     22 C                     0.025962
     23 O                    -0.184010
     24 H                     0.083382
     25 H                     0.085626
     26 H                     0.084060
     27 H                     0.076752
     28 H                     0.072045
     29 H                     0.077469
     30 H                     0.073333
     31 H                     0.083701
     32 O                    -0.188907
     33 C                    -0.139046
     34 C                     0.027151
     35 C                    -0.144502
     36 C                    -0.143670
     37 C                     0.023340
     38 O                    -0.187936
     39 H                     0.087827
     40 H                     0.085712
     41 H                     0.085841
     42 H                     0.082378
     43 H                     0.078382
     44 H                     0.074403
     45 H                     0.078647
     46 H                     0.074357
     47 H                     0.091727
     48 H                     0.104353
     49 H                     0.083506
     50 H                     0.089192
     51 H                     0.088526
     52 H                     0.091785
     53 H                     0.093301
     54 H                     0.073750
     55 H                     0.086814
     56 H                     0.099373
  ----------------------------------------
  Sum of atomic charges =    -0.000000

                    Cartesian Multipole Moments
 -----------------------------------------------------------------
    Charge (ESU x 10^10)
                -0.0000
    Dipole Moment (Debye)
         X      -1.1436      Y      -0.5579      Z      -1.7736
       Tot       2.1829
    Quadrupole Moments (Debye-Ang)
        XX    -139.6448     XY      -0.5146     YY    -146.8644
        XZ     -11.2211     YZ       7.8851     ZZ    -169.4233

 Total job time:  72.70s(wall), 3457.01s(cpu)
        *  Thank you very much for using Q-Chem.  Have a nice day.  *
