 Q-Chem 5.0, Q-Chem, Inc., Pleasanton, CA (2017)
 Q-Chem 5.0.1 for Intel X86 EM64T Linux

User input:
--------------------------------------------------------------
$molecule
0  1
O -3.4592855659 -1.6886513628 2.3669495428
C -3.6101130761 -1.2256945294 1.2141645815
C -4.2825006303 0.1474460497 0.8745414733
C -3.4915663048 1.2440528392 0.0463628791
C -1.9995094829 0.9654446523 -0.392823012
O -1.2885296532 0.0761875286 0.4999076933
C -0.7961713649 -1.0738316923 -0.3046912492
C 0.3561435595 -1.7966414522 0.4694964184
O 1.6346348234 -1.0831470123 0.6925543147
C 1.9589266829 -0.0991876352 -0.3102095597
C 3.3627766679 -0.3809401771 -0.9801574534
C 4.5096033232 0.5959086108 -0.4658635641
C 4.0012250348 1.6020052657 0.6221258063
O 3.6041770451 1.3400782392 1.7780211629
O -3.464427546 -2.0369828946 0.0224775736
O 4.0502200052 2.9229409451 0.069326272
O 1.2355532797 0.8795668819 -0.5955812282
C 3.5113150096 3.8977413194 1.0460228748
C 3.9770802073 -1.7901182703 -0.6037229129
C 5.1495027546 -2.106990152 -1.6150881394
C 6.282242876 -1.1565273541 -1.0767616419
C 5.5421923165 -0.4556761656 0.1301186445
O 4.6779959343 -1.5262167714 0.6742665516
H 3.2223224732 -0.2673636207 -2.070938127
H 4.9449081313 1.1763488255 -1.2979152565
H 3.2292484106 -2.5948182757 -0.4734000415
H 5.4436692103 -3.1663242935 -1.5461370671
H 4.869172806 -1.885871723 -2.6573882652
H 7.1502838373 -1.7291808929 -0.7131938114
H 6.6280213386 -0.4326260915 -1.8320397713
H 6.2027380536 -0.0528900491 0.9220482515
O -1.5029863866 1.4320213795 -1.4405208495
C -3.2609155716 -3.458255757 0.4042441847
C -5.5306916093 -0.0911287655 -0.0911135258
C -6.4937714719 1.1578248925 0.0023787624
C -5.6967001278 2.2204496973 -0.8413583908
C -4.4157261867 1.3887180168 -1.2393547889
O -4.9400014911 0.0190503586 -1.4423595591
H -4.6000564999 0.5678197363 1.845144082
H -3.493605727 2.1918065621 0.6176750543
H -4.1760392946 -4.0333388349 0.159795914
H -6.0238001921 -1.0740971811 0.036827194
H -7.4675374004 0.9244473241 -0.4568139449
H -6.6618388251 1.4765313273 1.0435591779
H -6.2554269201 2.5241376451 -1.7409219342
H -5.4408547781 3.1212341642 -0.2611132893
H -3.8691262693 1.7404607833 -2.1361618632
H -3.0573056053 -3.5194711065 1.4923827857
H -2.4096391811 -3.8659610491 -0.1727168248
H 3.6246286975 4.8933406873 0.5792264717
H 4.0692934591 3.8681268698 2.0040266736
H 2.4391532787 3.7068115937 1.2570720635
H -0.0077946038 -2.0758571218 1.4815065939
H 0.575195531 -2.741427462 -0.0831328281
H -0.4404146297 -0.7319900109 -1.2994983425
H -1.6547118185 -1.7683038176 -0.4459306787
$end

$rem
JOBTYPE                   OPT
METHOD                    B3LYP
DFT_D                     d3_op
BASIS                     STO-3G
GEOM_OPT_MAX_CYCLES       100
GEOM_OPT_TOL_GRADIENT     300
GEOM_OPT_TOL_DISPLACEMENT 1200
GEOM_OPT_TOL_ENERGY       100
SYMMETRY                  False
THRESH                    12
SCF_CONVERGENCE           8
MAX_SUB_FILE_NUM          128
MEM_STATIC                400
MEM_TOTAL                 4000
$end
--------------------------------------------------------------

   16   -1510.2426522251      2.95E-09 Convergence criterion met
 Total energy in the final basis set = -1510.24265223
   15   -1510.2482732829      4.63E-09 Convergence criterion met
 Total energy in the final basis set = -1510.24827328
   14   -1510.2558066640      3.95E-09 Convergence criterion met
 Total energy in the final basis set = -1510.25580666
   14   -1510.2622645676      5.00E-09 Convergence criterion met
 Total energy in the final basis set = -1510.26226457
   14   -1510.2669224166      3.66E-09 Convergence criterion met
 Total energy in the final basis set = -1510.26692242
   14   -1510.2714907533      3.91E-09 Convergence criterion met
 Total energy in the final basis set = -1510.27149075
   15   -1510.2758648867      4.48E-09 Convergence criterion met
 Total energy in the final basis set = -1510.27586489
   15   -1510.2800906074      3.54E-09 Convergence criterion met
   12   -1510.2941635230      5.80E-09 Convergence criterion met
 Total energy in the final basis set = -1510.29416352
   12   -1510.2941927181      3.05E-09 Convergence criterion met
 Total energy in the final basis set = -1510.29419272
   11   -1510.2942068444      5.47E-09 Convergence criterion met
 Total energy in the final basis set = -1510.29420684
   12   -1510.2942208047      3.17E-09 Convergence criterion met
 Total energy in the final basis set = -1510.29422080
   11   -1510.2942236617      7.37E-09 Convergence criterion met
 Total energy in the final basis set = -1510.29422366
   10   -1510.2942286131      9.24E-09 Convergence criterion met
 Total energy in the final basis set = -1510.29422861

             Standard Nuclear Orientation (Angstroms)
    I     Atom           X                Y                Z
 ----------------------------------------------------------------
    1      O      -3.4988772550    -2.8439664606     1.1825516174
    2      C      -3.4931826274    -1.6733038741     0.7441409477
    3      C      -3.0866847619    -0.3684602406     1.5042938980
    4      C      -2.0675593721     0.5384279179     0.6969875143
    5      C      -1.6210539707    -0.0716440530    -0.6748516315
    6      O      -1.0736835177    -1.3708382110    -0.4296010129
    7      C      -0.5744435281    -1.9715915315    -1.6888960080
    8      C       0.6946170691    -2.8229593841    -1.3521127801
    9      O       1.7701511232    -2.0078398143    -0.7411643072
   10      C       2.5649392681    -1.3758273256    -1.7506106368
   11      C       3.7296965504    -0.5841319337    -1.0600835031
   12      C       3.3078807211     0.8619568626    -0.5431769494
   13      C       1.8291171299     1.2630310254    -0.8787350735
   14      O       0.8180970872     1.1197293214    -0.1563248941
   15      O      -3.9068612505    -1.3010339536    -0.5803449512
   16      O       1.8258364659     1.8520941236    -2.1779411364
   17      O       2.3497788152    -1.4787542594    -2.9786822690
   18      C       0.4712320081     2.3439235753    -2.5369850335
   19      C       4.1923571860    -1.2544448490     0.3022076181
   20      C       5.5723775755    -0.6145640222     0.7333721634
   21      C       5.1048820346     0.7857698867     1.2783900433
   22      C       3.5493774660     0.7052459225     1.0177195898
   23      O       3.2300337102    -0.7141000459     1.2885615451
   24      H       4.5540452433    -0.5071097301    -1.7910658352
   25      H       3.9711543949     1.6275832357    -0.9832677255
   26      H       4.1646380620    -2.3609076973     0.3003880080
   27      H       6.0467752695    -1.2189615670     1.5226382789
   28      H       6.2716162144    -0.5285227971    -0.1137324382
   29      H       5.3098487419     0.8882663114     2.3559754050
   30      H       5.5739718688     1.6288584994     0.7463949371
   31      H       2.9213968723     1.3671853747     1.6448426896
   32      O      -1.6671841642     0.4671213399    -1.8044790979
   33      C      -4.3247114466    -2.4921460874    -1.3528091884
   34      C      -4.3176177186     0.6319598360     1.6336360855
   35      C      -3.9477994360     1.7456667117     2.6923334431
   36      C      -2.9539188370     2.6405787019     1.8603499972
   37      C      -2.9172017875     1.8570261830     0.4910745949
   38      O      -4.3051816394     1.3566756886     0.3440912728
   39      H      -2.6858555656    -0.6600381047     2.4904353549
   40      H      -1.1491442964     0.7280800882     1.2824840369
   41      H      -5.4205624085    -2.4603358598    -1.5165065111
   42      H      -5.2959889551     0.1381178215     1.7923919982
   43      H      -4.8476710392     2.3078507066     2.9884580429
   44      H      -3.4826190910     1.3207368138     3.5962407289
   45      H      -3.3530778571     3.6567801949     1.7133767166
   46      H      -1.9573216195     2.7148938265     2.3243223164
   47      H      -2.6205709020     2.4446214632    -0.3992334391
   48      H      -4.0595832055    -3.4132186417    -0.7950671843
   49      H      -3.8118962335    -2.4684951579    -2.3334915209
   50      H       0.5005611996     2.5424985380    -3.6236556402
   51      H       0.2508242424     3.2901158671    -2.0013807629
   52      H      -0.3290333023     1.6023464342    -2.3024024562
   53      H       0.4382624043    -3.5922505896    -0.5958212214
   54      H       1.0517981463    -3.3129523338    -2.2839600823
   55      H      -0.3448608925    -1.1717353956    -2.4244769438
   56      H      -1.3536600391    -2.6352552643    -2.1241834933
 ----------------------------------------------------------------

    9   -1510.2942280800      4.90E-09 Convergence criterion met
 Total energy in the final basis set = -1510.29422808
 Final energy is   -1510.29422807997
 **  OPTIMIZATION CONVERGED  **

                    Orbital Energies (a.u.)
 --------------------------------------------------------------

 Alpha MOs
 -- Occupied --
-18.936 -18.933 -18.929 -18.929 -18.887 -18.883 -18.876 -18.874
-18.873 -18.871 -10.104 -10.100 -10.097 -10.096 -10.075 -10.071
-10.060 -10.058 -10.057 -10.057 -10.053 -10.042 -10.039 -10.036
-10.034 -10.031 -10.020 -10.019 -10.017 -10.015  -1.018  -1.011
 -1.006  -1.003  -0.969  -0.966  -0.941  -0.933  -0.933  -0.932
 -0.763  -0.760  -0.728  -0.721  -0.712  -0.703  -0.696  -0.656
 -0.653  -0.614  -0.597  -0.580  -0.546  -0.543  -0.537  -0.533
 -0.512  -0.508  -0.485  -0.473  -0.465  -0.459  -0.445  -0.439
 -0.431  -0.430  -0.425  -0.415  -0.412  -0.408  -0.404  -0.399
 -0.399  -0.375  -0.370  -0.364  -0.361  -0.356  -0.355  -0.348
 -0.344  -0.342  -0.332  -0.331  -0.327  -0.325  -0.321  -0.309
 -0.306  -0.304  -0.301  -0.298  -0.291  -0.287  -0.281  -0.277
 -0.270  -0.253  -0.250  -0.243  -0.241  -0.233  -0.230  -0.183
 -0.174  -0.170  -0.167  -0.158  -0.157  -0.150  -0.148  -0.142
 -0.140

          Ground-State Mulliken Net Atomic Charges

     Atom                 Charge (a.u.)
  ----------------------------------------
      1 O                    -0.214611
      2 C                     0.213717
      3 C                    -0.078594
      4 C                    -0.076661
      5 C                     0.235765
      6 O                    -0.170410
      7 C                    -0.051605
      8 C                    -0.047610
      9 O                    -0.163043
     10 C                     0.203885
     11 C                    -0.077800
     12 C                    -0.079018
     13 C                     0.206191
     14 O                    -0.220582
     15 O                    -0.169193
     16 O                    -0.171125
     17 O                    -0.214540
     18 C                    -0.145344
     19 C                     0.026918
     20 C                    -0.144605
     21 C                    -0.143699
     22 C                     0.025314
     23 O                    -0.183838
     24 H                     0.085888
     25 H                     0.085848
     26 H                     0.085024
     27 H                     0.077770
     28 H                     0.073237
     29 H                     0.077616
     30 H                     0.073122
     31 H                     0.085050
     32 O                    -0.222547
     33 C                    -0.135077
     34 C                     0.025984
     35 C                    -0.143846
     36 C                    -0.143676
     37 C                     0.025413
     38 O                    -0.186836
     39 H                     0.087140
     40 H                     0.100430
     41 H                     0.085850
     42 H                     0.081516
     43 H                     0.077144
     44 H                     0.073960
     45 H                     0.076719
     46 H                     0.074727
     47 H                     0.088982
     48 H                     0.099443
     49 H                     0.084413
     50 H                     0.085728
     51 H                     0.076693
     52 H                     0.111851
     53 H                     0.095044
     54 H                     0.093707
     55 H                     0.101147
     56 H                     0.083025
  ----------------------------------------
  Sum of atomic charges =     0.000000

                    Cartesian Multipole Moments
 -----------------------------------------------------------------
    Charge (ESU x 10^10)
                 0.0000
    Dipole Moment (Debye)
         X       1.6746      Y       0.4082      Z       0.6119
       Tot       1.8291
    Quadrupole Moments (Debye-Ang)
        XX    -149.9562     XY       2.3230     YY    -153.9794
        XZ       0.0453     YZ       9.0145     ZZ    -163.0090

 Total job time:  109.82s(wall), 5236.24s(cpu)
        *  Thank you very much for using Q-Chem.  Have a nice day.  *
