 Q-Chem 5.0, Q-Chem, Inc., Pleasanton, CA (2017)
 Q-Chem 5.0.1 for Intel X86 EM64T Linux

User input:
--------------------------------------------------------------
$molecule
0  1
O -1.7304763346 -3.1589671911 -1.0792975264
C -1.9843179101 -2.1634199979 -0.3693985258
C -0.9311196685 -1.3042167857 0.3643768902
C -1.1850735476 0.5557363471 0.4550514657
C -2.2624592025 1.3168959398 -0.0994126404
O -2.1049746663 2.3340221955 -1.3275456555
C -1.7199349917 3.7486399611 -1.4040266837
C -0.4974320855 4.0114440361 -0.3270326259
O 0.604872193 2.8008490866 -0.8280681667
C 0.8509317372 1.3413840388 -0.9369511825
C 1.5417007606 0.6261418554 0.2740556143
C 1.8438916172 -1.0152843716 0.2080382433
C 1.739112224 -1.8901184338 -1.1022550295
O 1.9772670994 -3.120134485 -1.0955807681
O -3.3297152439 -1.793012314 -0.092483632
O 1.8743225929 -1.1103837398 -2.28411891
O 0.6228928001 0.8198970071 -2.0419088986
C 1.9987334209 -1.9790499967 -3.4765286209
C 3.1059995199 1.1060107219 0.2562573409
C 3.6611570305 0.9654736315 1.7332109549
C 3.8458500115 -0.6290314566 1.8088730164
C 3.4406178944 -1.0436793137 0.32949304
O 3.8496459223 0.0782548371 -0.4850486624
H 1.1134932112 1.0639456599 1.1788400654
H 1.5551588293 -1.6388341582 1.0652148499
H 3.2539006015 2.1129237699 -0.1817779339
H 4.6322998307 1.4761761608 1.8380988702
H 2.9657472853 1.3805111097 2.480333414
H 4.8972558459 -0.8987449575 1.998954687
H 3.2175061558 -1.1149324274 2.5722525901
H 3.9161126049 -1.9870338021 -0.0032668816
O -3.3956652978 1.3453609644 0.4270195042
C -4.2643149658 -2.6101472714 -0.9029887219
C -1.2192008409 -1.2136872859 2.1683781301
C -0.5420648643 -0.2924399662 3.2848524779
C -0.764894419 0.9219432289 3.0946204804
C -1.736563836 0.7367494695 2.0402066044
O -2.548948212 -0.6925947307 2.2166041741
H -0.759650787 -0.4623095021 -0.3497593029
H -0.6879667171 1.4776539207 0.7972307758
H -4.1789288581 -3.6886655637 -0.6602655618
H -1.6368627921 -2.2309832862 2.3231972528
H -1.0096402183 -0.5902133821 4.2386694351
H 0.5390590022 -0.4921913464 3.3139208395
H -1.2403006931 1.4095703509 3.9612362038
H 0.1144512936 1.5272172693 2.8346282128
H -2.3712929473 1.6401385939 2.1411571329
H -4.0836450377 -2.4745118325 -1.9886545633
H -5.2765800318 -2.2487525738 -0.6448842048
H 1.168327581 -1.7465737125 -4.1711526788
H 1.9656444502 -3.0428050016 -3.1666491242
H 2.964659244 -1.7600243823 -3.9719022109
H -0.079055839 5.0279998234 -0.4732464158
H -0.8075469018 3.8995151427 0.7368162094
H -2.4881559856 4.5355105938 -1.1935229815
H -1.3981609068 3.8714860417 -2.4590417658
$end

$rem
JOBTYPE                   OPT
METHOD                    B3LYP
DFT_D                     d3_op
BASIS                     STO-3G
GEOM_OPT_MAX_CYCLES       100
GEOM_OPT_TOL_GRADIENT     300
GEOM_OPT_TOL_DISPLACEMENT 1200
GEOM_OPT_TOL_ENERGY       100
SYMMETRY                  False
THRESH                    12
SCF_CONVERGENCE           8
MAX_SUB_FILE_NUM          128
MEM_STATIC                400
MEM_TOTAL                 4000
$end
--------------------------------------------------------------

   18   -1509.5176755942      5.24E-09 Convergence criterion met
 Total energy in the final basis set = -1509.51767559
   15   -1509.6230751753      6.61E-09 Convergence criterion met
 Total energy in the final basis set = -1509.62307518
   15   -1509.7234237186      6.09E-09 Convergence criterion met
 Total energy in the final basis set = -1509.72342372
   15   -1509.7967347831      5.64E-09 Convergence criterion met
 Total energy in the final basis set = -1509.79673478
   15   -1509.8593238617      6.29E-09 Convergence criterion met
 Total energy in the final basis set = -1509.85932386
   14   -1509.9067976212      8.89E-09 Convergence criterion met
 Total energy in the final basis set = -1509.90679762
   14   -1509.9490625412      9.45E-09 Convergence criterion met
 Total energy in the final basis set = -1509.94906254
   14   -1509.9801545794      6.27E-09 Convergence criterion met
   11   -1510.2949512451      6.30E-09 Convergence criterion met
 Total energy in the final basis set = -1510.29495125
   11   -1510.2949646365      4.77E-09 Convergence criterion met
 Total energy in the final basis set = -1510.29496464
   10   -1510.2949799052      6.66E-09 Convergence criterion met
 Total energy in the final basis set = -1510.29497991
   10   -1510.2949897914      5.41E-09 Convergence criterion met
 Total energy in the final basis set = -1510.29498979
    9   -1510.2949939155      5.36E-09 Convergence criterion met
 Total energy in the final basis set = -1510.29499392
    9   -1510.2949873348      4.25E-09 Convergence criterion met
 Total energy in the final basis set = -1510.29498733

             Standard Nuclear Orientation (Angstroms)
    I     Atom           X                Y                Z
 ----------------------------------------------------------------
    1      O      -1.0693386514    -2.3067897593    -1.1112577260
    2      C      -2.0657410920    -1.7972932950    -0.5431678108
    3      C      -2.2986703425    -1.6569598919     0.9982129506
    4      C      -2.3021382741    -0.1596396366     1.5241282665
    5      C      -2.2231777893     0.9184722133     0.3882665513
    6      O      -1.1803378436     0.5517039573    -0.5249497468
    7      C      -1.0936300866     1.5356186927    -1.6275115508
    8      C      -0.4143316038     2.8932570887    -1.2028196810
    9      O       1.0625733673     2.8157033871    -1.1609019472
   10      C       1.5196817501     2.1887420520     0.0426368572
   11      C       3.0891465198     2.2112086711     0.0504699102
   12      C       3.7395208937     0.9877396820     0.8196467216
   13      C       2.7155246659    -0.0730429836     1.3591030015
   14      O       2.4878076228    -0.3412955624     2.5598406902
   15      O      -3.2114304512    -1.3027444375    -1.2388849687
   16      O       2.1191713126    -0.7432178004     0.2466009427
   17      O       0.7679831923     1.7600736762     0.9446184545
   18      C       1.2256569930    -1.8266443098     0.7190056656
   19      C       3.7374807541     2.0526249339    -1.3896853724
   20      C       5.2364011282     2.5419225999    -1.3049542931
   21      C       5.9015672066     1.3424124763    -0.5334253830
   22      C       4.6610933523     0.3842552928    -0.3287890258
   23      O       3.8593109438     0.5874726140    -1.5566448717
   24      H       3.3982140858     3.1676663013     0.5126113093
   25      H       4.3362822721     1.3357212426     1.6807580083
   26      H       3.1318454968     2.4921636262    -2.2049391155
   27      H       5.6618460432     2.6586378928    -2.3144163092
   28      H       5.3308030985     3.4995754458    -0.7685639743
   29      H       6.6728856042     0.8471971017    -1.1444429240
   30      H       6.3525043577     1.6485969339     0.4240116160
   31      H       4.9079210584    -0.6874138749    -0.2016959217
   32      O      -2.9288605656     1.9419307559     0.2662006559
   33      C      -3.0125670743    -1.4331429612    -2.7004632343
   34      C      -3.7495818602    -2.1295005032     1.4508954418
   35      C      -3.7055263791    -2.4022136135     3.0058729851
   36      C      -3.6604271287    -0.9326282651     3.5687009804
   37      C      -3.7141102262    -0.0910274094     2.2344023178
   38      O      -4.5715516130    -0.9041818278     1.3387037050
   39      H      -1.5132084062    -2.2453580455     1.5014506047
   40      H      -1.4629141052     0.0155512070     2.2231669768
   41      H      -2.9680579401    -2.4969657499    -3.0116240165
   42      H      -4.1807715617    -2.9441970158     0.8377076746
   43      H      -4.6168489173    -2.9303016086     3.3286293959
   44      H      -2.8275326664    -2.9994230702     3.2995389658
   45      H      -4.5376851702    -0.7145639977     4.1982902932
   46      H      -2.7475443161    -0.7295776931     4.1516767683
   47      H      -4.1155713330     0.9371646521     2.3240874286
   48      H      -2.0811692647    -0.9316418765    -3.0316636062
   49      H      -3.8871675013    -0.9475019785    -3.1710304336
   50      H       0.4518277725    -2.0044035251    -0.0648842834
   51      H       0.7487684475    -1.5414969403     1.6769156444
   52      H       1.8091973152    -2.7556736589     0.8850865948
   53      H      -0.6430860289     3.6576137697    -1.9731127294
   54      H      -0.8310688498     3.2233900581    -0.2274271940
   55      H      -2.1073251130     1.7614593932    -2.0244691159
   56      H      -0.4858456480     1.0462923289    -2.4156236071
 ----------------------------------------------------------------

    9   -1510.2949881480      2.24E-09 Convergence criterion met
 Total energy in the final basis set = -1510.29498815
 Final energy is   -1510.29498814805
 **  OPTIMIZATION CONVERGED  **

                    Orbital Energies (a.u.)
 --------------------------------------------------------------

 Alpha MOs
 -- Occupied --
-18.940 -18.939 -18.937 -18.913 -18.886 -18.883 -18.879 -18.879
-18.878 -18.854 -10.105 -10.104 -10.103 -10.083 -10.079 -10.077
-10.067 -10.060 -10.057 -10.055 -10.055 -10.038 -10.037 -10.036
-10.029 -10.027 -10.019 -10.018 -10.017 -10.016  -1.022  -1.015
 -1.009  -0.992  -0.969  -0.965  -0.942  -0.940  -0.938  -0.917
 -0.764  -0.759  -0.728  -0.720  -0.712  -0.705  -0.696  -0.663
 -0.639  -0.621  -0.597  -0.583  -0.546  -0.541  -0.536  -0.533
 -0.514  -0.510  -0.480  -0.479  -0.469  -0.461  -0.441  -0.436
 -0.431  -0.430  -0.428  -0.417  -0.411  -0.409  -0.401  -0.393
 -0.389  -0.381  -0.375  -0.372  -0.362  -0.353  -0.350  -0.345
 -0.343  -0.339  -0.331  -0.328  -0.326  -0.325  -0.316  -0.310
 -0.308  -0.304  -0.301  -0.298  -0.291  -0.290  -0.281  -0.279
 -0.268  -0.254  -0.254  -0.249  -0.234  -0.230  -0.230  -0.198
 -0.180  -0.168  -0.162  -0.157  -0.154  -0.150  -0.143  -0.139
 -0.136

          Ground-State Mulliken Net Atomic Charges

     Atom                 Charge (a.u.)
  ----------------------------------------
      1 O                    -0.215007
      2 C                     0.220396
      3 C                    -0.080063
      4 C                    -0.077603
      5 C                     0.220112
      6 O                    -0.167116
      7 C                    -0.049677
      8 C                    -0.049994
      9 O                    -0.173783
     10 C                     0.215962
     11 C                    -0.077862
     12 C                    -0.080414
     13 C                     0.209161
     14 O                    -0.221506
     15 O                    -0.166495
     16 O                    -0.170466
     17 O                    -0.211268
     18 C                    -0.146650
     19 C                     0.023576
     20 C                    -0.144081
     21 C                    -0.144523
     22 C                     0.026902
     23 O                    -0.186297
     24 H                     0.083926
     25 H                     0.082253
     26 H                     0.090170
     27 H                     0.076872
     28 H                     0.072035
     29 H                     0.077014
     30 H                     0.073051
     31 H                     0.083720
     32 O                    -0.213480
     33 C                    -0.128068
     34 C                     0.025977
     35 C                    -0.143564
     36 C                    -0.144367
     37 C                     0.024309
     38 O                    -0.187267
     39 H                     0.086764
     40 H                     0.094967
     41 H                     0.088883
     42 H                     0.083189
     43 H                     0.077805
     44 H                     0.074249
     45 H                     0.078254
     46 H                     0.075607
     47 H                     0.090658
     48 H                     0.089498
     49 H                     0.091853
     50 H                     0.110883
     51 H                     0.081102
     52 H                     0.072083
     53 H                     0.091423
     54 H                     0.098428
     55 H                     0.093115
     56 H                     0.095354
  ----------------------------------------
  Sum of atomic charges =     0.000000

                    Cartesian Multipole Moments
 -----------------------------------------------------------------
    Charge (ESU x 10^10)
                -0.0000
    Dipole Moment (Debye)
         X       0.3558      Y       0.8218      Z      -0.8772
       Tot       1.2536
    Quadrupole Moments (Debye-Ang)
        XX    -157.6370     XY      10.6713     YY    -151.7978
        XZ       1.1669     YZ      -4.7669     ZZ    -156.3934

 Total job time:  232.29s(wall), 11090.69s(cpu)
        *  Thank you very much for using Q-Chem.  Have a nice day.  *
