 Q-Chem 5.0, Q-Chem, Inc., Pleasanton, CA (2017)
 Q-Chem 5.0.1 for Intel X86 EM64T Linux

User input:
--------------------------------------------------------------
$molecule
0  1
O -3.6880051626 2.1784553371 1.7831870096
C -3.2615436481 1.7251825753 0.697694083
C -3.8768042306 0.5297644849 -0.104410447
C -3.5023861874 0.3819168642 -1.6337833505
C -2.2098155697 1.1747812909 -2.1153112247
O -0.975593135 0.4313696134 -1.8939391121
C -0.6318645824 0.2156694276 -0.504883069
C 0.0541107665 -0.2411537735 2.3556059484
O 1.3449648822 -0.7916583034 2.8114334504
C 2.5968887363 -0.654726848 2.1332359908
C 2.8709541409 -1.3294855986 0.7155701849
C 2.4302500668 -0.5544450666 -0.6036944737
C 1.8543657204 0.8578590897 -0.3418602628
O 0.6180422535 1.3040076859 -0.3610538476
O -2.2180641675 2.3359422956 -0.05525906
O 2.8446651517 1.6549444573 0.2582929372
O 3.556896669 -0.2361768112 2.8195472665
C 2.3043015305 2.9545093477 0.7234476833
C 4.4412848274 -1.4499269709 0.474688991
C 4.6991284199 -2.5901084931 -0.5823350486
C 4.196740703 -1.893481511 -1.9002898064
C 3.827735187 -0.4526321531 -1.3643986831
O 4.7847590603 -0.2148013734 -0.2673780867
H 2.3910185906 -2.3240233013 0.7247567086
H 1.6935103713 -1.1552875323 -1.1628137189
H 5.0236308144 -1.5060022793 1.4137227325
H 5.7747132354 -2.8211677756 -0.6381420749
H 4.1486207613 -3.5143080217 -0.3470873855
H 4.9929701261 -1.8308040416 -2.6585032386
H 3.3258910843 -2.4005770014 -2.3444630685
H 3.8802595445 0.3582668015 -2.1157471719
O -2.2271910918 2.1501346773 -2.8954623072
C -1.6721045587 3.5247440749 0.6282061799
C -3.5163889099 -0.9231412773 0.4525561086
C -4.7373407663 -1.8608244634 0.1090818635
C -4.5942679179 -1.9587741523 -1.4554634182
C -3.2398134373 -1.1796134377 -1.7012587464
O -2.464137421 -1.4225104374 -0.4608999815
H -4.9696858882 0.6685512672 -0.0229238373
H -4.3473018609 0.6987567149 -2.2722843401
H -2.0756980787 3.5820936663 1.6582625136
H -3.1683064831 -0.9487183195 1.5028238012
H -4.610946443 -2.8450782339 0.5873020198
H -5.7007400116 -1.4335468755 0.4275210029
H -4.5080617018 -3.0034715586 -1.7898171034
H -5.4364173691 -1.4890472269 -1.9876257245
H -2.6624602711 -1.5061098918 -2.5863318045
H -1.9601365536 4.4346157128 0.0669955166
H -0.5707840261 3.4339729482 0.6382722955
H 3.1632957568 3.4807674284 1.1774820265
H 1.5108199904 2.8019589426 1.4829045368
H 1.8968337336 3.5505889587 -0.1170484973
H -0.0749512869 0.7304788699 2.8771591699
H -0.7031198438 -0.9260350383 2.7795445546
H -0.2053425217 -0.0678322166 1.277642899
H 0.0114043985 -0.7129355578 -0.6386302652
$end

$rem
JOBTYPE                   OPT
METHOD                    B3LYP
DFT_D                     d3_op
BASIS                     STO-3G
GEOM_OPT_MAX_CYCLES       100
GEOM_OPT_TOL_GRADIENT     300
GEOM_OPT_TOL_DISPLACEMENT 1200
GEOM_OPT_TOL_ENERGY       100
SYMMETRY                  False
THRESH                    12
SCF_CONVERGENCE           8
MAX_SUB_FILE_NUM          128
MEM_STATIC                400
MEM_TOTAL                 4000
$end
--------------------------------------------------------------

   18   -1510.1201435907      7.14E-09 Convergence criterion met
 Total energy in the final basis set = -1510.12014359
   14   -1510.1232026069      7.41E-09 Convergence criterion met
 Total energy in the final basis set = -1510.12320261
   14   -1510.1308818473      9.63E-09 Convergence criterion met
 Total energy in the final basis set = -1510.13088185
   15   -1510.1263314278      6.55E-09 Convergence criterion met
 Total energy in the final basis set = -1510.12633143
   15   -1510.1361488053      5.82E-09 Convergence criterion met
 Total energy in the final basis set = -1510.13614881
   15   -1510.1396543862      4.24E-09 Convergence criterion met
 Total energy in the final basis set = -1510.13965439
   15   -1510.1432986352      3.40E-09 Convergence criterion met
 Total energy in the final basis set = -1510.14329864
   15   -1510.1461011723      4.98E-09 Convergence criterion met
   11   -1510.3102163092      4.52E-09 Convergence criterion met
 Total energy in the final basis set = -1510.31021631
   10   -1510.3102330333      7.14E-09 Convergence criterion met
 Total energy in the final basis set = -1510.31023303
   10   -1510.3102354067      2.69E-09 Convergence criterion met
 Total energy in the final basis set = -1510.31023541
   10   -1510.3102395949      2.72E-09 Convergence criterion met
 Total energy in the final basis set = -1510.31023959
   10   -1510.3102421978      8.03E-09 Convergence criterion met
 Total energy in the final basis set = -1510.31024220
    9   -1510.3102430839      5.16E-09 Convergence criterion met
 Total energy in the final basis set = -1510.31024308

             Standard Nuclear Orientation (Angstroms)
    I     Atom           X                Y                Z
 ----------------------------------------------------------------
    1      O      -0.3438770899     1.2320950618     0.6285307930
    2      C      -1.5129171430     0.9131582911    -0.2127817387
    3      C      -2.5275302315    -0.1674333125     0.3069001906
    4      C      -3.3034089697    -0.6958663590    -0.9777922291
    5      C      -3.0665733777     0.1019665127    -2.3375994099
    6      O      -1.7292878868     0.5436886739    -2.6885584089
    7      C      -0.8508465071     0.3126606391    -1.5352123109
    8      C       0.8927038339     0.7760172878     3.1803434500
    9      O       2.1662111182     1.4954888421     2.9617172737
   10      C       3.0231034043     0.9539136905     1.9402251965
   11      C       2.6387047666    -0.4243430482     1.2452411079
   12      C       1.5535185617    -0.4061449728     0.0872080504
   13      C       0.8760062700     1.0038552127    -0.2390857952
   14      O       0.4096741497     1.0574348976    -1.6642305701
   15      O      -2.3992112655     2.0569177221    -0.4363085021
   16      O       1.9041880746     1.9753359499     0.0092968317
   17      O       4.1159998397     1.5342955377     1.7591489745
   18      C       1.3985160401     3.3611238980    -0.0330354738
   19      C       3.9013012026    -0.9631672335     0.4456669574
   20      C       3.7012896967    -2.5054419734     0.1617581377
   21      C       2.6312618839    -2.4661757489    -0.9918247431
   22      C       2.4166632929    -0.9099466645    -1.1472078587
   23      O       3.7562532011    -0.3429352724    -0.8905115595
   24      H       2.3378544918    -1.1451327337     2.0256866512
   25      H       0.7483650534    -1.1231310267     0.3108041211
   26      H       4.8690978445    -0.6743023865     0.8988213222
   27      H       4.6452056570    -2.9602589383    -0.1780567599
   28      H       3.3480731450    -3.0503413461     1.0517469094
   29      H       3.0260538922    -2.8959969583    -1.9260410444
   30      H       1.6975740625    -2.9891519517    -0.7288502874
   31      H       2.0223982592    -0.5672142794    -2.1236533876
   32      O      -3.9825349059     0.3273628926    -3.1552159314
   33      C      -1.7468659523     3.1282716824    -1.2262874155
   34      C      -1.8613556644    -1.5002324097     0.8267670231
   35      C      -2.9847671838    -2.4454295169     1.4018676394
   36      C      -3.6325756105    -3.0043867264     0.0795962877
   37      C      -2.8179070754    -2.2158296866    -1.0143133346
   38      O      -1.4480138120    -2.1829127732    -0.4316851435
   39      H      -3.2096003265     0.2797083571     1.0498728509
   40      H      -4.3950938510    -0.6602514610    -0.8200422038
   41      H      -1.4431262638     3.9623174637    -0.5611235076
   42      H      -0.9913488694    -1.3496546053     1.4940236057
   43      H      -2.5404552839    -3.2510762253     2.0073599768
   44      H      -3.7038674064    -1.8898548582     2.0248116113
   45      H      -3.4618303904    -4.0879990035    -0.0245537862
   46      H      -4.7145468658    -2.8078659812     0.0155768090
   47      H      -2.7956805582    -2.6781739200    -2.0204937032
   48      H      -2.4995769805     3.5073369027    -1.9445518316
   49      H      -0.8620169023     2.7654417143    -1.7842173427
   50      H       2.2239321563     3.9833942538     0.3592734626
   51      H       0.5048120432     3.4834182738     0.6098827924
   52      H       1.1597511663     3.6798693420    -1.0681564531
   53      H       1.0481820975    -0.2805411389     3.4790131352
   54      H       0.2357357104     0.8336923088     2.2790101869
   55      H       0.4044471452     1.3045695963     4.0202164017
   56      H      -0.7064466937    -0.7953932353    -1.3648253863
 ----------------------------------------------------------------

    8   -1510.3102430680      8.29E-09 Convergence criterion met
 Total energy in the final basis set = -1510.31024307
 Final energy is   -1510.31024306796
 **  OPTIMIZATION CONVERGED  **

                    Orbital Energies (a.u.)
 --------------------------------------------------------------

 Alpha MOs
 -- Occupied --
-18.949 -18.937 -18.929 -18.927 -18.924 -18.914 -18.911 -18.892
-18.883 -18.850 -10.150 -10.118 -10.114 -10.107 -10.087 -10.086
-10.086 -10.063 -10.057 -10.055 -10.054 -10.052 -10.052 -10.043
-10.043 -10.042 -10.038 -10.031 -10.018 -10.016  -1.054  -1.020
 -1.004  -0.989  -0.981  -0.967  -0.965  -0.949  -0.929  -0.917
 -0.788  -0.762  -0.750  -0.729  -0.722  -0.702  -0.679  -0.667
 -0.649  -0.639  -0.609  -0.604  -0.575  -0.562  -0.555  -0.549
 -0.537  -0.525  -0.509  -0.498  -0.487  -0.471  -0.461  -0.455
 -0.447  -0.443  -0.436  -0.428  -0.424  -0.418  -0.411  -0.406
 -0.403  -0.396  -0.392  -0.389  -0.383  -0.370  -0.366  -0.362
 -0.358  -0.354  -0.343  -0.337  -0.333  -0.333  -0.327  -0.322
 -0.319  -0.311  -0.309  -0.303  -0.296  -0.291  -0.283  -0.282
 -0.272  -0.267  -0.259  -0.252  -0.234  -0.229  -0.224  -0.198
 -0.191  -0.186  -0.184  -0.174  -0.164  -0.151  -0.146  -0.139
 -0.131

          Ground-State Mulliken Net Atomic Charges

     Atom                 Charge (a.u.)
  ----------------------------------------
      1 O                    -0.205560
      2 C                     0.159881
      3 C                    -0.071544
      4 C                    -0.087620
      5 C                     0.208364
      6 O                    -0.166615
      7 C                     0.069937
      8 C                    -0.150128
      9 O                    -0.174294
     10 C                     0.215076
     11 C                    -0.084778
     12 C                    -0.079267
     13 C                     0.247267
     14 O                    -0.188984
     15 O                    -0.191622
     16 O                    -0.170030
     17 O                    -0.211467
     18 C                    -0.128310
     19 C                     0.026475
     20 C                    -0.145214
     21 C                    -0.145071
     22 C                     0.021862
     23 O                    -0.185047
     24 H                     0.073751
     25 H                     0.075465
     26 H                     0.091686
     27 H                     0.077878
     28 H                     0.070098
     29 H                     0.077737
     30 H                     0.072487
     31 H                     0.089918
     32 O                    -0.192746
     33 C                    -0.142337
     34 C                     0.018224
     35 C                    -0.142754
     36 C                    -0.141156
     37 C                     0.022081
     38 O                    -0.191825
     39 H                     0.092130
     40 H                     0.093435
     41 H                     0.076030
     42 H                     0.086625
     43 H                     0.082124
     44 H                     0.080332
     45 H                     0.083033
     46 H                     0.081086
     47 H                     0.090606
     48 H                     0.087368
     49 H                     0.094302
     50 H                     0.101056
     51 H                     0.090748
     52 H                     0.085228
     53 H                     0.066264
     54 H                     0.102538
     55 H                     0.082689
     56 H                     0.102588
  ----------------------------------------
  Sum of atomic charges =     0.000000

                    Cartesian Multipole Moments
 -----------------------------------------------------------------
    Charge (ESU x 10^10)
                 0.0000
    Dipole Moment (Debye)
         X      -3.8328      Y      -3.8207      Z       2.0532
       Tot       5.7882
    Quadrupole Moments (Debye-Ang)
        XX    -178.5751     XY      -2.6092     YY    -152.7530
        XZ     -11.3358     YZ      -4.3367     ZZ    -171.4102

 Total job time:  321.77s(wall), 15365.34s(cpu)
        *  Thank you very much for using Q-Chem.  Have a nice day.  *
