 Q-Chem 5.0, Q-Chem, Inc., Pleasanton, CA (2017)
 Q-Chem 5.0.1 for Intel X86 EM64T Linux

User input:
--------------------------------------------------------------
$molecule
0  1
O -5.5566650477 0.9859677015 -0.7224284611
C -4.3445355353 0.8313768405 -0.9939624203
C -3.7220719371 -0.5669226349 -1.3828154485
C -2.1811299156 -0.7562620304 -1.7269460481
C -1.3855288909 0.5132091435 -2.2005142465
O 0.0509286909 0.3633646254 -2.0711741976
C 0.7097033592 1.6104595958 -1.6380804103
C 1.1977295153 1.694709819 -0.1199735548
O 2.2655592664 1.4666991032 -1.2214642227
C 3.1021117046 0.4035302912 -1.2845908188
C 3.1517576822 -0.5745134797 -0.0950003201
C 2.8196877835 -0.2151937646 1.6255559828
C 2.2431371359 1.1162864461 2.537188679
O 2.5297098326 1.87996839 3.4828475547
O -3.386267669 1.8780045077 -0.8081714892
O 1.1910801473 2.0651966518 2.7281909769
O 3.7911237773 0.1965606229 -2.3158184864
C 1.6687116819 3.1944735239 3.5600010195
C 2.1896442961 -1.7666409734 -0.4156543833
C 2.8385788498 -3.0838162994 0.1069918272
C 2.6655295391 -2.8788486304 1.6579250821
C 1.8374413343 -1.5147174044 1.7700048224
O 1.0351311598 -1.5710203098 0.5255672101
H 4.182639082 -0.9701292477 -0.1163708696
H 3.7735227771 -0.3765480758 2.1590503342
H 1.8309269101 -1.7940034775 -1.4628726706
H 2.251577404 -3.9497988561 -0.2383584612
H 3.8837317167 -3.2122013374 -0.2162824942
H 2.0927036738 -3.714398726 2.0895795435
H 3.6287071184 -2.7916474106 2.1859031815
H 1.189814022 -1.4274612595 2.663785866
O -1.8897999072 1.5317426205 -2.7215591975
C -4.0859765324 3.1223883716 -0.4096618908
C -3.8235692746 -1.4858361003 -0.081110698
C -3.6169353155 -3.010313228 -0.4355374693
C -2.0634971215 -3.0627346232 -0.6777823629
C -1.6698168989 -1.5486029159 -0.4400183155
O -2.5876863206 -1.1381046889 0.6433492603
H -4.3611550863 -0.9743606103 -2.1874236518
H -2.1254146433 -1.4510984357 -2.5875818295
H -4.6158772803 3.0010055335 0.5572277577
H -4.7208900976 -1.2689211716 0.5313349092
H -3.9033525009 -3.6224460542 0.4344845663
H -4.2087010496 -3.3383251875 -1.305026874
H -1.5540140549 -3.7186460454 0.0457712035
H -1.8043038806 -3.3959566636 -1.6948910137
H -0.6123320133 -1.4079639094 -0.1224004205
H -4.8190833805 3.4404265667 -1.1777934385
H -3.2983800579 3.8913484872 -0.3091036039
H 1.2778824827 4.1298874873 3.1169022503
H 2.7741784296 3.1835205913 3.6180437753
H 1.2393795995 3.0891230979 4.574431898
H 1.4019506117 2.4903147478 0.6261245025
H 0.8981671225 1.0533440116 0.7385792106
H -0.1048737383 2.3408274661 -1.8332685866
H 1.6053932783 1.9072009445 -2.2262257018
$end

$rem
JOBTYPE                   OPT
METHOD                    B3LYP
DFT_D                     d3_op
BASIS                     STO-3G
GEOM_OPT_MAX_CYCLES       100
GEOM_OPT_TOL_GRADIENT     300
GEOM_OPT_TOL_DISPLACEMENT 1200
GEOM_OPT_TOL_ENERGY       100
SYMMETRY                  False
THRESH                    12
SCF_CONVERGENCE           8
MAX_SUB_FILE_NUM          128
MEM_STATIC                400
MEM_TOTAL                 4000
$end
--------------------------------------------------------------

   19   -1509.4052374292      9.24E-09 Convergence criterion met
 Total energy in the final basis set = -1509.40523743
   17   -1509.5424695523      3.01E-09 Convergence criterion met
 Total energy in the final basis set = -1509.54246955
   16   -1509.6572878431      3.55E-09 Convergence criterion met
 Total energy in the final basis set = -1509.65728784
   15   -1509.7555336149      6.78E-09 Convergence criterion met
 Total energy in the final basis set = -1509.75553361
   15   -1509.8392465045      3.90E-09 Convergence criterion met
 Total energy in the final basis set = -1509.83924650
   14   -1509.9094473269      1.00E-08 Convergence criterion met
 Total energy in the final basis set = -1509.90944733
   14   -1509.9683132239      6.21E-09 Convergence criterion met
 Total energy in the final basis set = -1509.96831322
   14   -1510.0190918410      6.52E-09 Convergence criterion met
    9   -1510.2957662252      6.25E-09 Convergence criterion met
 Total energy in the final basis set = -1510.29576623
    9   -1510.2957689774      8.74E-09 Convergence criterion met
 Total energy in the final basis set = -1510.29576898
    9   -1510.2957703001      4.33E-09 Convergence criterion met
 Total energy in the final basis set = -1510.29577030
    9   -1510.2957722970      7.84E-09 Convergence criterion met
 Total energy in the final basis set = -1510.29577230
    9   -1510.2957736456      4.66E-09 Convergence criterion met
 Total energy in the final basis set = -1510.29577365
    9   -1510.2957748439      5.01E-09 Convergence criterion met
 Total energy in the final basis set = -1510.29577484

             Standard Nuclear Orientation (Angstroms)
    I     Atom           X                Y                Z
 ----------------------------------------------------------------
    1      O      -4.4388012408     0.3194564444     1.4381266082
    2      C      -3.4658425244    -0.1628110980     0.8216260947
    3      C      -3.4410028432    -1.4006564443    -0.1387919737
    4      C      -2.6211948798    -1.1484123364    -1.4792612907
    5      C      -2.1297715936     0.3409769424    -1.6158211691
    6      O      -0.7024660223     0.3841494863    -1.5973728795
    7      C      -0.2165398058     1.7740653809    -1.7756112840
    8      C       1.1758688297     1.8578107905    -1.0653022687
    9      O       2.0997913575     0.8614931231    -1.6611067618
   10      C       1.8437876994    -0.4700960210    -1.1540319441
   11      C       1.9836651456    -0.7290102394     0.4080615465
   12      C       3.1039673082     0.1222585213     1.1511409740
   13      C       3.9638749931     1.0412929065     0.2064327159
   14      O       4.8596663292     0.6542006905    -0.5747733136
   15      O      -2.1248681725     0.3260596281     0.9143599685
   16      O       3.6380107204     2.4185794772     0.4295525003
   17      O       1.6988498085    -1.4134949616    -1.9632246522
   18      C       4.4392822696     3.2719135075    -0.4765439216
   19      C       0.7104896577    -0.3782659101     1.2813398065
   20      C       0.8554617120    -1.0719413412     2.6896383965
   21      C       1.9190558937    -0.1520037112     3.3995701095
   22      C       2.2429864562     0.8753877456     2.2512615305
   23      O       0.9127995070     1.0602925504     1.6085793267
   24      H       2.2009029511    -1.8086179839     0.4907092498
   25      H       3.8159027200    -0.5678148203     1.6388365154
   26      H      -0.2707704552    -0.5600704755     0.7860065348
   27      H      -0.1099383950    -1.0580496011     3.2198525636
   28      H       1.1897848428    -2.1171263141     2.5964495468
   29      H       1.4880113477     0.3669882741     4.2707781965
   30      H       2.8150178427    -0.7045080978     3.7241907176
   31      H       2.6531449622     1.8520878755     2.5716766507
   32      O      -2.8604624015     1.3466637792    -1.7560705165
   33      C      -2.0240707549     1.5165730149     1.7876839354
   34      C      -2.5963048647    -2.5899353253     0.4960934046
   35      C      -2.8824007885    -3.9074549067    -0.3258734643
   36      C      -2.0424593262    -3.6422990106    -1.6306204332
   37      C      -1.4518056874    -2.2105508798    -1.3323316487
   38      O      -1.2049685724    -2.2463534781     0.1302030875
   39      H      -4.4835053491    -1.7007907355    -0.3424618956
   40      H      -3.2550388060    -1.3674410262    -2.3582441649
   41      H      -2.5508265541     1.3565816660     2.7493133424
   42      H      -2.6953728186    -2.6886480636     1.5947490504
   43      H      -2.5130224222    -4.7896192427     0.2207833082
   44      H      -3.9568547461    -4.0417983714    -0.5294375658
   45      H      -1.2286695240    -4.3764500261    -1.7413812798
   46      H      -2.6576219242    -3.6572888462    -2.5442799190
   47      H      -0.5141797038    -1.9532483786    -1.8659508307
   48      H      -2.4562996624     2.4073336647     1.2881168127
   49      H      -0.9327319336     1.6530005623     1.9529306268
   50      H       4.1453665437     4.3142293752    -0.2541564124
   51      H       4.2257859237     3.0423650748    -1.5405377415
   52      H       5.5272556384     3.1460542217    -0.3015842461
   53      H       1.6236496081     2.8504673074    -1.2677501867
   54      H       1.0588227089     1.7033257475     0.0438036446
   55      H      -0.9391291012     2.4932097691    -1.3330113872
   56      H      -0.1221144002     1.9926524672    -2.8618303351
 ----------------------------------------------------------------

    9   -1510.2957754692      2.07E-09 Convergence criterion met
 Total energy in the final basis set = -1510.29577547
 Final energy is   -1510.29577546922
 **  OPTIMIZATION CONVERGED  **

                    Orbital Energies (a.u.)
 --------------------------------------------------------------

 Alpha MOs
 -- Occupied --
-18.937 -18.933 -18.929 -18.917 -18.907 -18.895 -18.880 -18.879
-18.870 -18.866 -10.102 -10.099 -10.098 -10.097 -10.070 -10.066
-10.064 -10.061 -10.057 -10.054 -10.052 -10.043 -10.040 -10.040
-10.038 -10.034 -10.027 -10.023 -10.022 -10.020  -1.017  -1.010
 -1.007  -0.994  -0.986  -0.976  -0.939  -0.935  -0.933  -0.925
 -0.768  -0.765  -0.726  -0.724  -0.712  -0.708  -0.691  -0.661
 -0.657  -0.607  -0.598  -0.576  -0.553  -0.548  -0.541  -0.538
 -0.516  -0.512  -0.486  -0.481  -0.473  -0.465  -0.444  -0.438
 -0.435  -0.428  -0.422  -0.417  -0.411  -0.408  -0.408  -0.402
 -0.391  -0.374  -0.373  -0.371  -0.361  -0.357  -0.353  -0.349
 -0.346  -0.344  -0.340  -0.334  -0.328  -0.323  -0.318  -0.315
 -0.310  -0.307  -0.307  -0.299  -0.297  -0.290  -0.283  -0.279
 -0.278  -0.262  -0.253  -0.252  -0.243  -0.235  -0.222  -0.180
 -0.177  -0.175  -0.171  -0.159  -0.154  -0.151  -0.146  -0.145
 -0.142

          Ground-State Mulliken Net Atomic Charges

     Atom                 Charge (a.u.)
  ----------------------------------------
      1 O                    -0.207891
      2 C                     0.211541
      3 C                    -0.079972
      4 C                    -0.079104
      5 C                     0.214251
      6 O                    -0.176545
      7 C                    -0.053339
      8 C                    -0.073893
      9 O                    -0.187473
     10 C                     0.220818
     11 C                    -0.084549
     12 C                    -0.083821
     13 C                     0.209534
     14 O                    -0.213177
     15 O                    -0.175108
     16 O                    -0.173883
     17 O                    -0.195235
     18 C                    -0.128767
     19 C                     0.011654
     20 C                    -0.142948
     21 C                    -0.143620
     22 C                     0.025223
     23 O                    -0.189913
     24 H                     0.089485
     25 H                     0.086491
     26 H                     0.126495
     27 H                     0.077464
     28 H                     0.077814
     29 H                     0.077930
     30 H                     0.075993
     31 H                     0.093162
     32 O                    -0.223149
     33 C                    -0.140543
     34 C                     0.025570
     35 C                    -0.143668
     36 C                    -0.143638
     37 C                     0.020818
     38 O                    -0.191847
     39 H                     0.086670
     40 H                     0.085489
     41 H                     0.086319
     42 H                     0.081381
     43 H                     0.078175
     44 H                     0.075027
     45 H                     0.080483
     46 H                     0.074790
     47 H                     0.103976
     48 H                     0.085380
     49 H                     0.109480
     50 H                     0.088262
     51 H                     0.093324
     52 H                     0.089286
     53 H                     0.078964
     54 H                     0.115445
     55 H                     0.092684
     56 H                     0.082706
  ----------------------------------------
  Sum of atomic charges =     0.000000

                    Cartesian Multipole Moments
 -----------------------------------------------------------------
    Charge (ESU x 10^10)
                 0.0000
    Dipole Moment (Debye)
         X       0.2159      Y      -0.3215      Z       2.5883
       Tot       2.6171
    Quadrupole Moments (Debye-Ang)
        XX    -171.0036     XY      14.8575     YY    -149.5517
        XZ      11.3338     YZ      -1.8036     ZZ    -158.2935

 Total job time:  272.86s(wall), 13008.48s(cpu)
        *  Thank you very much for using Q-Chem.  Have a nice day.  *
