 Q-Chem 5.0, Q-Chem, Inc., Pleasanton, CA (2017)
 Q-Chem 5.0.1 for Intel X86 EM64T Linux

User input:
--------------------------------------------------------------
$molecule
0  1
O -3.94934 -3.66094 2.70899
C -3.26408 -4.56952 2.26188
C -3.36658 -6.02376 2.66595
C -2.69764 -6.43451 3.98794
C -2.15433 -5.31331 4.84573
O -3.1241 -4.37344 5.04973
C -2.60985 -3.1312 5.5413
C -3.67378 -2.04348 5.43623
O -3.83931 -1.39633 6.70772
C -2.74572 -0.74681 7.17818
C -2.45228 0.53076 6.42827
C -1.20759 1.29162 6.90797
C -0.25779 0.51219 7.79514
O -0.34791 -0.67875 8.0561
O -2.42918 -4.29967 1.2241
O 0.80321 1.20743 8.28402
O -2.71818 -0.69202 8.4003
C 1.78552 0.6648 9.08561
C -2.01775 0.48242 4.90801
C -2.34975 1.81848 4.2369
C -1.29601 2.71254 4.84395
C -0.48771 1.67436 5.62344
O -0.61204 0.49365 4.8907
H -3.36618 1.16273 6.50994
H -1.51209 2.16871 7.52178
H -2.41521 -0.27674 4.24582
H -2.11625 1.70491 3.15253
H -3.39897 2.16931 4.33994
H -0.69207 3.15983 4.02336
H -1.68062 3.51147 5.51472
H 0.54992 2.03301 5.80169
O -0.99336 -5.23171 5.2278
C -2.23061 -3.04128 0.6953
C -4.81666 -6.46912 2.92639
C -4.93337 -7.98729 2.78443
C -4.23042 -8.44481 4.04683
C -3.90216 -7.09403 4.68985
O -4.98565 -6.27768 4.30969
H -2.93785 -6.61551 1.82493
H -1.86862 -7.16189 3.83674
H -1.8277 -2.359 1.47458
H -5.55167 -5.9605 2.26465
H -6.01161 -8.25335 2.86472
H -4.52243 -8.39572 1.83613
H -4.96531 -8.99132 4.6792
H -3.32741 -9.07318 3.88865
H -3.73875 -7.21319 5.78376
H -3.18649 -2.6363 0.29957
H -1.49893 -3.10697 -0.13581
H 2.52501 1.4521 9.3382
H 2.30671 -0.15676 8.54916
H 1.34032 0.27647 10.02656
H -3.92662 -1.50901 4.50714
H -4.61914 -2.62772 5.41318
H -1.71457 -2.77678 4.98188
H -2.32388 -3.30513 6.6035
$end

$opt
CONSTRAINT
tors           1           2           3           4     -79.153
tors           3           4           5           6     +52.215
tors           4           5           6           7    -164.521
tors           5           6           7           8    +166.791
tors           6           7           8           9    +127.409
tors           7           8           9          10     +62.544
tors           8           9          10          11     +72.623
tors           9          10          11          12    -178.984
tors          11          12          13          14      +6.500
ENDCONSTRAINT
$end

$rem
JOBTYPE                   OPT
METHOD                    B3LYP
DFT_D                     d3_op
BASIS                     STO-3G
GEOM_OPT_MAX_CYCLES       100
GEOM_OPT_TOL_GRADIENT     300
GEOM_OPT_TOL_DISPLACEMENT 1200
GEOM_OPT_TOL_ENERGY       100
SYMMETRY                  False
THRESH                    12
SCF_CONVERGENCE           8
MAX_SUB_FILE_NUM          128
MEM_STATIC                400
MEM_TOTAL                 4000
$end
--------------------------------------------------------------

   16   -1510.0774240339      3.81E-09 Convergence criterion met
 Total energy in the final basis set = -1510.07742403
   14   -1510.1545669086      9.21E-09 Convergence criterion met
 Total energy in the final basis set = -1510.15456691
   14   -1510.1982469214      7.79E-09 Convergence criterion met
 Total energy in the final basis set = -1510.19824692
   13   -1510.2222769548      9.74E-09 Convergence criterion met
 Total energy in the final basis set = -1510.22227695
   14   -1510.2341797148      4.39E-09 Convergence criterion met
 Total energy in the final basis set = -1510.23417971
   13   -1510.2404867937      8.32E-09 Convergence criterion met
 Total energy in the final basis set = -1510.24048679
   13   -1510.2438500431      7.05E-09 Convergence criterion met
 Total energy in the final basis set = -1510.24385004
   13   -1510.2453447276      4.80E-09 Convergence criterion met
   11   -1510.2466887897      6.16E-09 Convergence criterion met
 Total energy in the final basis set = -1510.24668879
   11   -1510.2466930498      5.21E-09 Convergence criterion met
 Total energy in the final basis set = -1510.24669305
   11   -1510.2466970890      7.48E-09 Convergence criterion met
 Total energy in the final basis set = -1510.24669709
   11   -1510.2467024207      3.26E-09 Convergence criterion met
 Total energy in the final basis set = -1510.24670242
   10   -1510.2467048531      8.26E-09 Convergence criterion met
 Total energy in the final basis set = -1510.24670485
   10   -1510.2467081334      9.40E-09 Convergence criterion met
 Total energy in the final basis set = -1510.24670813

             Standard Nuclear Orientation (Angstroms)
    I     Atom           X                Y                Z
 ----------------------------------------------------------------
    1      O      -2.7316317676     1.6159153195     0.8595502762
    2      C      -3.2717518362     1.4292691428    -0.2510711751
    3      C      -4.4051158118     0.4150239441    -0.6395814467
    4      C      -3.9438829792    -1.0945153631    -0.8686398404
    5      C      -2.4008729447    -1.3671919202    -0.8262387412
    6      O      -1.8571530385    -0.8265745750     0.3768974404
    7      C      -0.3808032406    -0.7279376670     0.2957757216
    8      C       0.0615140999     0.1830984191     1.5073235168
    9      O       1.1035004605    -0.4385009328     2.3440717178
   10      C       2.3414316268    -0.6798722150     1.6210248306
   11      C       3.2595368055     0.5643511844     1.2475359060
   12      C       4.5503701131     0.1364460843     0.4435615284
   13      C       4.2661366097    -0.9996038527    -0.6123702083
   14      O       3.1706543025    -1.4945545281    -0.9495562521
   15      O      -2.8820385150     2.1232480015    -1.4467428316
   16      O       5.5247068547    -1.3772240994    -1.1835228353
   17      O       2.7986683707    -1.8438264261     1.6425279024
   18      C       5.3161293245    -2.4149496759    -2.2196415578
   19      C       2.7981191836     1.8416549420     0.3933941177
   20      C       3.6064236638     3.0660391821     0.9757781706
   21      C       5.0629748390     2.6942807606     0.5089231764
   22      C       4.7857993903     1.4462740131    -0.4203273034
   23      O       3.4123679954     1.6689101368    -0.9414722725
   24      H       3.5793271995     0.9373116573     2.2404796771
   25      H       5.4025547434    -0.1376820038     1.0896455358
   26      H       1.7120634283     2.0082055866     0.2877365960
   27      H       3.2638333530     4.0030311137     0.5077248036
   28      H       3.5116304242     3.1590052776     2.0693836938
   29      H       5.5300184718     3.5112276544    -0.0632008839
   30      H       5.7225992345     2.4317471531     1.3516337520
   31      H       5.5010756115     1.3094291765    -1.2542914335
   32      O      -1.7230124763    -1.9210198185    -1.7203526470
   33      C      -1.7548296534     3.0377739111    -1.1549745596
   34      C      -5.4119480766     0.2275443563     0.5752346722
   35      C      -6.7300710009    -0.4638570921     0.0447080554
   36      C      -6.2466305099    -1.9520405570    -0.1258210759
   37      C      -4.7331416978    -1.8274188968     0.3067107654
   38      O      -4.7649373557    -0.8239237529     1.3917087764
   39      H      -4.9092918214     0.8010507735    -1.5432144532
   40      H      -4.2941447242    -1.4512215823    -1.8536804036
   41      H      -0.8560958899     2.4802677273    -0.8193470289
   42      H      -5.5681848957     1.1412987793     1.1806548725
   43      H      -7.5358227797    -0.3824601200     0.7914373044
   44      H      -7.0783293230    -0.0194812939    -0.9013950575
   45      H      -6.7851908440    -2.6322176748     0.5532115859
   46      H      -6.3574979748    -2.3216348836    -1.1577391070
   47      H      -4.2633941023    -2.7661594904     0.6588614169
   48      H      -2.0185402315     3.7797144705    -0.3738258785
   49      H      -1.5298978908     3.5604475788    -2.1027815500
   50      H       6.3225752128    -2.6823190967    -2.5909620393
   51      H       4.6995658865    -2.0344707752    -3.0597732363
   52      H       4.8218388046    -3.3154214356    -1.8015379184
   53      H       0.3415208273     1.1936886210     1.1500826658
   54      H      -0.8185910436     0.3005365879     2.1749848661
   55      H      -0.0651674316    -0.3010160106    -0.6803208551
   56      H       0.0884652779    -1.7326041345     0.3935387945
 ----------------------------------------------------------------

    9   -1510.2467085564      4.53E-09 Convergence criterion met
 Total energy in the final basis set = -1510.24670856
 Final energy is   -1510.24670855639
 **  OPTIMIZATION CONVERGED  **

                    Orbital Energies (a.u.)
 --------------------------------------------------------------

 Alpha MOs
 -- Occupied --
-18.934 -18.930 -18.930 -18.912 -18.892 -18.890 -18.888 -18.876
-18.872 -18.871 -10.103 -10.098 -10.096 -10.096 -10.068 -10.067
-10.067 -10.066 -10.064 -10.061 -10.060 -10.059 -10.039 -10.038
-10.038 -10.036 -10.026 -10.025 -10.020 -10.019  -1.014  -1.010
 -1.006  -1.000  -0.976  -0.970  -0.939  -0.936  -0.932  -0.928
 -0.765  -0.762  -0.727  -0.724  -0.709  -0.707  -0.695  -0.665
 -0.660  -0.610  -0.598  -0.584  -0.550  -0.545  -0.542  -0.537
 -0.519  -0.514  -0.482  -0.474  -0.463  -0.459  -0.453  -0.442
 -0.440  -0.431  -0.424  -0.414  -0.410  -0.409  -0.407  -0.401
 -0.391  -0.382  -0.371  -0.368  -0.363  -0.360  -0.352  -0.349
 -0.342  -0.338  -0.335  -0.333  -0.329  -0.324  -0.322  -0.319
 -0.311  -0.307  -0.306  -0.302  -0.298  -0.289  -0.284  -0.276
 -0.273  -0.257  -0.251  -0.244  -0.240  -0.234  -0.232  -0.182
 -0.174  -0.169  -0.166  -0.157  -0.153  -0.148  -0.147  -0.144
 -0.143

          Ground-State Mulliken Net Atomic Charges

     Atom                 Charge (a.u.)
  ----------------------------------------
      1 O                    -0.208542
      2 C                     0.208889
      3 C                    -0.078744
      4 C                    -0.079088
      5 C                     0.204414
      6 O                    -0.168390
      7 C                    -0.051497
      8 C                    -0.047359
      9 O                    -0.183181
     10 C                     0.214569
     11 C                    -0.085746
     12 C                    -0.075555
     13 C                     0.216561
     14 O                    -0.210168
     15 O                    -0.171334
     16 O                    -0.173609
     17 O                    -0.182703
     18 C                    -0.128565
     19 C                     0.023634
     20 C                    -0.141536
     21 C                    -0.145660
     22 C                     0.022805
     23 O                    -0.192336
     24 H                     0.084496
     25 H                     0.088858
     26 H                     0.078197
     27 H                     0.077783
     28 H                     0.075005
     29 H                     0.079102
     30 H                     0.075506
     31 H                     0.086912
     32 O                    -0.210488
     33 C                    -0.128397
     34 C                     0.026416
     35 C                    -0.144516
     36 C                    -0.143425
     37 C                     0.026554
     38 O                    -0.183567
     39 H                     0.085949
     40 H                     0.085389
     41 H                     0.082017
     42 H                     0.084210
     43 H                     0.078064
     44 H                     0.073351
     45 H                     0.078300
     46 H                     0.074225
     47 H                     0.084926
     48 H                     0.088673
     49 H                     0.091652
     50 H                     0.089209
     51 H                     0.088570
     52 H                     0.091877
     53 H                     0.074797
     54 H                     0.108719
     55 H                     0.087941
     56 H                     0.096838
  ----------------------------------------
  Sum of atomic charges =    -0.000000

                    Cartesian Multipole Moments
 -----------------------------------------------------------------
    Charge (ESU x 10^10)
                 0.0000
    Dipole Moment (Debye)
         X       0.2103      Y       2.9898      Z      -1.1647
       Tot       3.2156
    Quadrupole Moments (Debye-Ang)
        XX    -134.8064     XY       5.5782     YY    -155.4436
        XZ       4.7557     YZ       4.1600     ZZ    -166.6024

 Total job time:  77.83s(wall), 3708.93s(cpu)
        *  Thank you very much for using Q-Chem.  Have a nice day.  *
