 Q-Chem 5.0, Q-Chem, Inc., Pleasanton, CA (2017)
 Q-Chem 5.0.1 for Intel X86 EM64T Linux

User input:
--------------------------------------------------------------
$molecule
0  1
O -2.7316317676 1.6159153195 0.8595502762
C -3.2717518362 1.4292691428 -0.2510711751
C -4.4051158118 0.4150239441 -0.6395814467
C -3.9438829792 -1.0945153631 -0.8686398404
C -2.4008729447 -1.3671919202 -0.8262387412
O -1.8571530385 -0.826574575 0.3768974404
C -0.3808032406 -0.727937667 0.2957757216
C 0.0615140999 0.1830984191 1.5073235168
O 1.1035004605 -0.4385009328 2.3440717178
C 2.3414316268 -0.679872215 1.6210248306
C 3.2595368055 0.5643511844 1.247535906
C 4.5503701131 0.1364460843 0.4435615284
C 4.2661366097 -0.9996038527 -0.6123702083
O 3.1706543025 -1.4945545281 -0.9495562521
O -2.882038515 2.1232480015 -1.4467428316
O 5.5247068547 -1.3772240994 -1.1835228353
O 2.7986683707 -1.8438264261 1.6425279024
C 5.3161293245 -2.4149496759 -2.2196415578
C 2.7981191836 1.841654942 0.3933941177
C 3.6064236638 3.0660391821 0.9757781706
C 5.062974839 2.6942807606 0.5089231764
C 4.7857993903 1.4462740131 -0.4203273034
O 3.4123679954 1.6689101368 -0.9414722725
H 3.5793271995 0.9373116573 2.2404796771
H 5.4025547434 -0.1376820038 1.0896455358
H 1.7120634283 2.0082055866 0.287736596
H 3.263833353 4.0030311137 0.5077248036
H 3.5116304242 3.1590052776 2.0693836938
H 5.5300184718 3.5112276544 -0.0632008839
H 5.7225992345 2.4317471531 1.351633752
H 5.5010756115 1.3094291765 -1.2542914335
O -1.7230124763 -1.9210198185 -1.720352647
C -1.7548296534 3.0377739111 -1.1549745596
C -5.4119480766 0.2275443563 0.5752346722
C -6.7300710009 -0.4638570921 0.0447080554
C -6.2466305099 -1.952040557 -0.1258210759
C -4.7331416978 -1.8274188968 0.3067107654
O -4.7649373557 -0.8239237529 1.3917087764
H -4.9092918214 0.8010507735 -1.5432144532
H -4.2941447242 -1.4512215823 -1.8536804036
H -0.8560958899 2.4802677273 -0.8193470289
H -5.5681848957 1.1412987793 1.1806548725
H -7.5358227797 -0.38246012 0.7914373044
H -7.078329323 -0.0194812939 -0.9013950575
H -6.785190844 -2.6322176748 0.5532115859
H -6.3574979748 -2.3216348836 -1.157739107
H -4.2633941023 -2.7661594904 0.6588614169
H -2.0185402315 3.7797144705 -0.3738258785
H -1.5298978908 3.5604475788 -2.10278155
H 6.3225752128 -2.6823190967 -2.5909620393
H 4.6995658865 -2.0344707752 -3.0597732363
H 4.8218388046 -3.3154214356 -1.8015379184
H 0.3415208273 1.193688621 1.1500826658
H -0.8185910436 0.3005365879 2.1749848661
H -0.0651674316 -0.3010160106 -0.6803208551
H 0.0884652779 -1.7326041345 0.3935387945
$end

$rem
JOBTYPE                   OPT
METHOD                    B3LYP
DFT_D                     d3_op
BASIS                     STO-3G
GEOM_OPT_MAX_CYCLES       100
GEOM_OPT_TOL_GRADIENT     300
GEOM_OPT_TOL_DISPLACEMENT 1200
GEOM_OPT_TOL_ENERGY       100
SYMMETRY                  False
THRESH                    12
SCF_CONVERGENCE           8
MAX_SUB_FILE_NUM          128
MEM_STATIC                400
MEM_TOTAL                 4000
$end
--------------------------------------------------------------

   16   -1510.2470752462      4.74E-09 Convergence criterion met
 Total energy in the final basis set = -1510.24707525
   13   -1510.2490618535      6.61E-09 Convergence criterion met
 Total energy in the final basis set = -1510.24906185
   13   -1510.2509750990      5.69E-09 Convergence criterion met
 Total energy in the final basis set = -1510.25097510
   13   -1510.2529348293      8.56E-09 Convergence criterion met
 Total energy in the final basis set = -1510.25293483
   14   -1510.2456627287      4.32E-09 Convergence criterion met
 Total energy in the final basis set = -1510.24566273
   14   -1510.2525307705      5.12E-09 Convergence criterion met
 Total energy in the final basis set = -1510.25253077
   15   -1510.2532903572      3.88E-09 Convergence criterion met
 Total energy in the final basis set = -1510.25329036
   13   -1510.2559993791      6.28E-09 Convergence criterion met
   12   -1510.2814219198      5.32E-09 Convergence criterion met
 Total energy in the final basis set = -1510.28142192
   11   -1510.2814378939      3.78E-09 Convergence criterion met
 Total energy in the final basis set = -1510.28143789
   11   -1510.2814428362      6.99E-09 Convergence criterion met
 Total energy in the final basis set = -1510.28144284
   11   -1510.2814408235      3.57E-09 Convergence criterion met
 Total energy in the final basis set = -1510.28144082
    9   -1510.2814427623      7.92E-09 Convergence criterion met
 Total energy in the final basis set = -1510.28144276
    9   -1510.2814464752      7.33E-09 Convergence criterion met
 Total energy in the final basis set = -1510.28144648

             Standard Nuclear Orientation (Angstroms)
    I     Atom           X                Y                Z
 ----------------------------------------------------------------
    1      O      -2.5202583921     2.3258865401     0.3040721341
    2      C      -2.4846334948     1.5210863193    -0.6520631127
    3      C      -3.5392568513     0.4077191661    -0.9985091406
    4      C      -2.9418507982    -1.0550457103    -1.1331695101
    5      C      -1.4227797836    -1.1597116137    -0.7729778076
    6      O      -1.1992545142    -0.4339444160     0.4312757395
    7      C       0.2317265046    -0.5027408056     0.8248632254
    8      C       0.3302052217     0.1218148213     2.2590027094
    9      O       1.4782452514    -0.3651614482     3.0531592055
   10      C       2.8355175770    -0.0999986022     2.6582594137
   11      C       3.3442537940     0.8810232114     1.4935724961
   12      C       3.7982521377     0.1356026574     0.1635476474
   13      C       3.1647890796    -1.2963990830     0.0359374609
   14      O       2.7283359340    -1.9946897611     0.9804725933
   15      O      -1.5063892268     1.5341216568    -1.6958255486
   16      O       3.1195365896    -1.6670538446    -1.3350919403
   17      O       3.7029468353    -0.6082966940     3.4066907484
   18      C       2.2797449156    -2.8804869038    -1.5156249975
   19      C       2.4688049890     2.0590946034     0.8844251265
   20      C       3.4564350717     3.1601645164     0.3345599427
   21      C       4.0299759471     2.4531506071    -0.9501369820
   22      C       3.2226607336     1.1010094053    -0.9482344681
   23      O       1.9096443608     1.4843037813    -0.3683226660
   24      H       4.2416821065     1.3296693933     1.9561323757
   25      H       4.8988659523     0.0514646824     0.1037712036
   26      H       1.6605699350     2.4535188581     1.5258423702
   27      H       2.8975025252     4.0732314202     0.0738814785
   28      H       4.2383671413     3.4189747033     1.0658641201
   29      H       3.8168456504     3.0334054428    -1.8620451932
   30      H       5.1156229541     2.2771098667    -0.8879830357
   31      H       3.0797058206     0.6119066170    -1.9310725307
   32      O      -0.5516357406    -1.8120659601    -1.3937946864
   33      C      -0.5342304170     2.6373245923    -1.4908918714
   34      C      -4.5924281144     0.2076028012     0.1677905695
   35      C      -5.8565954200    -0.5214295085    -0.4319565411
   36      C      -5.2949737936    -1.9785511706    -0.6325779932
   37      C      -3.8300759393    -1.8256261873    -0.0580463212
   38      O      -3.9763013972    -0.8313921927     1.0268725940
   39      H      -4.0373163053     0.7013369821    -1.9409740992
   40      H      -3.0787278064    -1.4636993561    -2.1494301033
   41      H      -0.9298912718     3.3424104964    -0.7333101949
   42      H      -4.7911866965     1.1255343708     0.7546552802
   43      H      -6.6893048969    -0.5063814954     0.2893188199
   44      H      -6.1954196135    -0.0617401227    -1.3740159052
   45      H      -5.8633125096    -2.7173864540    -0.0455921117
   46      H      -5.2936787987    -2.2922350917    -1.6887961668
   47      H      -3.3765436827    -2.7594305171     0.3277457775
   48      H      -0.4074388264     3.1528142091    -2.4617412370
   49      H       0.4451854787     2.2257872109    -1.1451100367
   50      H       2.5032212828    -3.2568229240    -2.5302213492
   51      H       1.2016926441    -2.5991643945    -1.4394160092
   52      H       2.5247075356    -3.6546504200    -0.7621918053
   53      H       0.2959356383     1.2288001279     2.2041320543
   54      H      -0.5515207914    -0.2085679445     2.8478620776
   55      H       0.8640330905     0.0961161255     0.1213243547
   56      H       0.5852822316    -1.5546828929     0.8550396776
 ----------------------------------------------------------------

   10   -1510.2814465166      5.13E-09 Convergence criterion met
 Total energy in the final basis set = -1510.28144652
 Final energy is   -1510.28144651657
 **  OPTIMIZATION CONVERGED  **

                    Orbital Energies (a.u.)
 --------------------------------------------------------------

 Alpha MOs
 -- Occupied --
-18.942 -18.936 -18.931 -18.924 -18.920 -18.886 -18.886 -18.877
-18.865 -18.857 -10.109 -10.103 -10.096 -10.093 -10.083 -10.081
-10.068 -10.060 -10.055 -10.051 -10.050 -10.049 -10.045 -10.038
-10.037 -10.037 -10.034 -10.034 -10.020 -10.018  -1.020  -1.014
 -1.002  -0.999  -0.993  -0.968  -0.944  -0.938  -0.926  -0.924
 -0.779  -0.762  -0.736  -0.724  -0.722  -0.706  -0.695  -0.661
 -0.649  -0.608  -0.603  -0.584  -0.563  -0.556  -0.543  -0.535
 -0.523  -0.511  -0.487  -0.480  -0.473  -0.461  -0.457  -0.452
 -0.436  -0.430  -0.428  -0.421  -0.415  -0.408  -0.402  -0.399
 -0.392  -0.382  -0.377  -0.371  -0.362  -0.360  -0.354  -0.352
 -0.347  -0.342  -0.340  -0.337  -0.330  -0.328  -0.325  -0.322
 -0.314  -0.309  -0.307  -0.302  -0.294  -0.291  -0.285  -0.280
 -0.275  -0.258  -0.255  -0.243  -0.239  -0.233  -0.227  -0.192
 -0.182  -0.168  -0.164  -0.160  -0.158  -0.155  -0.147  -0.142
 -0.137

          Ground-State Mulliken Net Atomic Charges

     Atom                 Charge (a.u.)
  ----------------------------------------
      1 O                    -0.220589
      2 C                     0.215045
      3 C                    -0.078138
      4 C                    -0.078057
      5 C                     0.219726
      6 O                    -0.167712
      7 C                    -0.075072
      8 C                    -0.047922
      9 O                    -0.167103
     10 C                     0.210617
     11 C                    -0.086048
     12 C                    -0.078927
     13 C                     0.212678
     14 O                    -0.206133
     15 O                    -0.179230
     16 O                    -0.171141
     17 O                    -0.207420
     18 C                    -0.144758
     19 C                     0.022537
     20 C                    -0.141990
     21 C                    -0.144160
     22 C                     0.025972
     23 O                    -0.186132
     24 H                     0.089733
     25 H                     0.091790
     26 H                     0.089878
     27 H                     0.081994
     28 H                     0.080381
     29 H                     0.082575
     30 H                     0.080107
     31 H                     0.101448
     32 O                    -0.221149
     33 C                    -0.155858
     34 C                     0.024407
     35 C                    -0.143684
     36 C                    -0.144028
     37 C                     0.025646
     38 O                    -0.186677
     39 H                     0.083195
     40 H                     0.085250
     41 H                     0.088100
     42 H                     0.090283
     43 H                     0.077894
     44 H                     0.072852
     45 H                     0.078096
     46 H                     0.073521
     47 H                     0.082326
     48 H                     0.075217
     49 H                     0.104686
     50 H                     0.086753
     51 H                     0.114863
     52 H                     0.089974
     53 H                     0.078662
     54 H                     0.099438
     55 H                     0.103350
     56 H                     0.092934
  ----------------------------------------
  Sum of atomic charges =    -0.000000

                    Cartesian Multipole Moments
 -----------------------------------------------------------------
    Charge (ESU x 10^10)
                -0.0000
    Dipole Moment (Debye)
         X       0.1781      Y       2.1583      Z      -3.9125
       Tot       4.4719
    Quadrupole Moments (Debye-Ang)
        XX    -147.1226     XY      14.4435     YY    -154.7166
        XZ      -4.1279     YZ       5.5468     ZZ    -173.5921

 Total job time:  150.69s(wall), 7181.47s(cpu)
        *  Thank you very much for using Q-Chem.  Have a nice day.  *
