 Q-Chem 5.0, Q-Chem, Inc., Pleasanton, CA (2017)
 Q-Chem 5.0.1 for Intel X86 EM64T Linux

User input:
--------------------------------------------------------------
$molecule
0  1
O 1.0009108272 -0.2734656252 2.4861526591
C 0.9598500732 -0.0873821426 1.2783889454
C 1.8328641233 -0.780530816 0.2556552668
C 2.4936528165 0.1008239423 -0.8169256237
C 2.3518113698 1.5965953709 -0.6419584112
O 1.394056423 1.8655363296 0.2938950367
C 0.3426746868 2.7017987512 -0.2005653874
C -0.2070995892 2.1380519516 -1.5067349459
O -0.9065717405 0.9094414832 -1.2535138689
C -0.2162346351 -0.0195868594 -0.5467753489
C -1.0893181694 -1.1443193149 -0.0434168594
C -2.3277138672 -0.6981799681 0.7475494782
C -2.7033116263 0.7642632246 0.6175075663
O -3.1423854849 1.4659998241 1.5171384132
O -0.1152227092 0.9125787405 1.3850187018
O -3.118581175 1.1575472658 -0.6240692244
O 0.3104815769 -0.5979170311 -1.4990368482
C -3.7362683776 2.3579170606 -0.9185872368
C -1.8416818519 -2.0157581842 -1.1277658242
C -2.1791904571 -3.3943078899 -0.5544326812
C -3.2619974335 -3.0289622448 0.4359677629
C -3.4367673737 -1.5440559146 0.1034125157
O -3.1188960692 -1.4493807194 -1.2594000427
H -0.5279087233 -1.8974055989 0.5468193143
H -2.2196975744 -0.8994601449 1.8366062131
H -1.2951852987 -2.1697843273 -2.0827883242
H -2.6428737524 -3.9779508094 -1.3827719003
H -1.3292642459 -3.9770222153 -0.1387562764
H -4.1765934337 -3.6122964182 0.1890989442
H -2.9943856833 -3.1696375303 1.5057758347
H -4.4512077303 -1.1908286688 0.3934511943
O 2.8759403953 2.4409266302 -1.3577304085
C -0.5252303406 1.5890675356 2.5701992386
C 3.1271590165 -1.2694279715 0.9871061646
C 3.837814972 -2.3796753906 0.2043398313
C 4.3862182899 -1.5897984044 -0.9551407163
C 3.986363462 -0.1748509517 -0.5246822926
O 4.0300953208 -0.2058286434 0.8750650967
H 1.4710485338 -1.7968010621 -0.0242065207
H 2.3751122882 -0.1408413975 -1.897428256
H 0.3543169489 2.0751155557 3.0448881619
H 2.9530487993 -1.6397948214 2.0214675756
H 4.6918400844 -2.7213527771 0.8331351392
H 3.2200971821 -3.2619073841 -0.0694002274
H 5.4930383227 -1.7049166572 -0.9666215189
H 3.9669181268 -1.8521742909 -1.9505212392
H 4.6658892118 0.5630531869 -1.0083473649
H -0.9887445937 0.8788340859 3.2885611043
H -1.2386229044 2.4079820511 2.3808078085
H -3.9376483533 2.404698016 -2.0082418152
H -3.0766243589 3.2064112796 -0.6378835213
H -4.7008714119 2.4373678296 -0.3736111589
H -0.9295269206 2.8621931085 -1.9373820384
H 0.5582733105 1.9851068268 -2.295506034
H 0.7861550315 3.6929314157 -0.4449431049
H -0.4667723006 2.9648840088 0.4907932408
$end

$rem
JOBTYPE                   OPT
METHOD                    B3LYP
DFT_D                     d3_op
BASIS                     STO-3G
GEOM_OPT_MAX_CYCLES       100
GEOM_OPT_TOL_GRADIENT     300
GEOM_OPT_TOL_DISPLACEMENT 1200
GEOM_OPT_TOL_ENERGY       100
SYMMETRY                  False
THRESH                    12
SCF_CONVERGENCE           8
MAX_SUB_FILE_NUM          128
MEM_STATIC                400
MEM_TOTAL                 4000
$end
--------------------------------------------------------------

   18   -1509.7915768155      5.51E-09 Convergence criterion met
 Total energy in the final basis set = -1509.79157682
   16   -1509.9215912145      6.20E-09 Convergence criterion met
 Total energy in the final basis set = -1509.92159121
   15   -1510.0288814071      6.69E-09 Convergence criterion met
 Total energy in the final basis set = -1510.02888141
   14   -1510.0969219417      5.04E-09 Convergence criterion met
 Total energy in the final basis set = -1510.09692194
   15   -1510.1421795168      8.02E-09 Convergence criterion met
 Total energy in the final basis set = -1510.14217952
   14   -1510.1746160111      9.77E-09 Convergence criterion met
 Total energy in the final basis set = -1510.17461601
   15   -1510.2013681491      2.47E-09 Convergence criterion met
 Total energy in the final basis set = -1510.20136815
   14   -1510.2189089343      5.15E-09 Convergence criterion met
   11   -1510.2962373118      8.91E-09 Convergence criterion met
 Total energy in the final basis set = -1510.29623731
    9   -1510.2962296692      8.82E-09 Convergence criterion met
 Total energy in the final basis set = -1510.29622967
    9   -1510.2962352878      9.84E-09 Convergence criterion met
 Total energy in the final basis set = -1510.29623529
   11   -1510.2962292453      2.50E-09 Convergence criterion met
 Total energy in the final basis set = -1510.29622925
   11   -1510.2962360587      4.75E-09 Convergence criterion met
 Total energy in the final basis set = -1510.29623606
   10   -1510.2962307210      9.65E-09 Convergence criterion met
 Total energy in the final basis set = -1510.29623072

             Standard Nuclear Orientation (Angstroms)
    I     Atom           X                Y                Z
 ----------------------------------------------------------------
    1      O       2.1616344419     1.1134818770     2.5051651877
    2      C       1.6652928370     0.1763021254     1.8432809903
    3      C       2.4015445255    -0.7949321960     0.8573500442
    4      C       2.6966765946    -0.1953391064    -0.5840519675
    5      C       2.3129111403     1.3090561282    -0.8051762268
    6      O       1.0731799225     1.5741683933    -0.1323531534
    7      C       0.5142814240     2.8840836991    -0.5369596755
    8      C      -0.5745209102     2.6105527198    -1.6427584556
    9      O      -1.4390504664     1.5084694954    -1.1659454646
   10      C      -0.8228945495     0.2397790980    -1.4277364301
   11      C      -1.3793441684    -0.8734383083    -0.4705817850
   12      C      -2.7081040890    -0.5748149775     0.3408314018
   13      C      -3.1563547432     0.9241750036     0.4024165310
   14      O      -2.7984379150     1.7578563063     1.2726246153
   15      O       0.2946193740    -0.2411078652     1.9232007495
   16      O      -4.1272383653     1.1933366287    -0.6069159407
   17      O       0.0417810079     0.0521994372    -2.3125026760
   18      C      -4.5275911547     2.6173038568    -0.5565431426
   19      C      -1.8394733975    -2.1197638193    -1.3302019987
   20      C      -2.0738494069    -3.3631397019    -0.3842649067
   21      C      -3.4693714022    -3.0099244001     0.2515278266
   22      C      -3.7227267232    -1.5779909938    -0.3644807012
   23      O      -3.2062095488    -1.7178529478    -1.7457137460
   24      H      -0.5639707830    -1.0814520660     0.2542393924
   25      H      -2.5454565367    -0.8798247698     1.3894480303
   26      H      -1.2024326082    -2.3091483412    -2.2164884507
   27      H      -2.1178563048    -4.2944559961    -0.9706691717
   28      H      -1.2769153562    -3.4582519145     0.3707407750
   29      H      -4.2509946578    -3.7117971096    -0.0811056099
   30      H      -3.4482393560    -2.9983614716     1.3529656925
   31      H      -4.7764399611    -1.2394544561    -0.3767765513
   32      O       2.9286888352     2.1512489035    -1.4912287904
   33      C      -0.4880859995     0.6779258528     2.7892379255
   34      C       3.8788748367    -1.1346359078     1.3385257849
   35      C       4.3396747319    -2.4558205215     0.6061119276
   36      C       4.5836170973    -1.9203367915    -0.8541033167
   37      C       4.2646923847    -0.3848082644    -0.6758948629
   38      O       4.7092540709    -0.0852755440     0.7057912136
   39      H       1.7896043596    -1.7098446100     0.7694396542
   40      H       2.1534227933    -0.7687373884    -1.3610544648
   41      H       0.1855077979     1.4707607484     3.1694958754
   42      H       4.0155104399    -1.1252234050     2.4371297036
   43      H       5.2696007921    -2.8395946299     1.0552745348
   44      H       3.5737209345    -3.2468595246     0.6493929473
   45      H       5.6292157130    -2.0646557521    -1.1688780744
   46      H       3.9225416473    -2.3945559199    -1.5969493578
   47      H       4.7514812841     0.2982966644    -1.3990191588
   48      H      -0.8897494626     0.0952807595     3.6413925758
   49      H      -1.3340674816     1.1192933906     2.2016737464
   50      H      -5.3142901589     2.7403054066    -1.3233515602
   51      H      -3.6724482644     3.2830617220    -0.7913666059
   52      H      -4.9280404235     2.8948108946     0.4398500225
   53      H      -1.2226765337     3.4971416847    -1.7902116878
   54      H      -0.0872560295     2.3281469759    -2.6005458613
   55      H       1.3212530871     3.5395906308    -0.9291494834
   56      H       0.0487376922     3.3282935972     0.3655283165
 ----------------------------------------------------------------

    9   -1510.2962311229      7.36E-09 Convergence criterion met
 Total energy in the final basis set = -1510.29623112
 Final energy is   -1510.29623112291
 **  OPTIMIZATION CONVERGED  **

                    Orbital Energies (a.u.)
 --------------------------------------------------------------

 Alpha MOs
 -- Occupied --
-18.942 -18.940 -18.940 -18.922 -18.886 -18.886 -18.885 -18.876
-18.874 -18.865 -10.108 -10.107 -10.106 -10.094 -10.081 -10.077
-10.067 -10.059 -10.058 -10.058 -10.057 -10.039 -10.035 -10.035
-10.032 -10.029 -10.020 -10.019 -10.019 -10.018  -1.028  -1.016
 -1.009  -0.999  -0.969  -0.968  -0.948  -0.940  -0.938  -0.926
 -0.764  -0.762  -0.729  -0.722  -0.710  -0.705  -0.700  -0.664
 -0.647  -0.620  -0.598  -0.585  -0.548  -0.541  -0.537  -0.535
 -0.516  -0.507  -0.493  -0.478  -0.471  -0.458  -0.449  -0.441
 -0.434  -0.430  -0.425  -0.423  -0.414  -0.409  -0.406  -0.402
 -0.397  -0.384  -0.378  -0.372  -0.364  -0.358  -0.354  -0.348
 -0.338  -0.335  -0.332  -0.332  -0.329  -0.327  -0.325  -0.313
 -0.311  -0.307  -0.305  -0.298  -0.297  -0.293  -0.287  -0.280
 -0.271  -0.255  -0.249  -0.240  -0.239  -0.233  -0.231  -0.196
 -0.180  -0.173  -0.168  -0.163  -0.159  -0.149  -0.148  -0.143
 -0.141

          Ground-State Mulliken Net Atomic Charges

     Atom                 Charge (a.u.)
  ----------------------------------------
      1 O                    -0.217089
      2 C                     0.215691
      3 C                    -0.081016
      4 C                    -0.079603
      5 C                     0.219842
      6 O                    -0.174852
      7 C                    -0.053014
      8 C                    -0.049586
      9 O                    -0.173698
     10 C                     0.220153
     11 C                    -0.084925
     12 C                    -0.082107
     13 C                     0.226888
     14 O                    -0.224126
     15 O                    -0.181104
     16 O                    -0.163514
     17 O                    -0.223293
     18 C                    -0.125722
     19 C                     0.022523
     20 C                    -0.144874
     21 C                    -0.142705
     22 C                     0.024501
     23 O                    -0.190289
     24 H                     0.105795
     25 H                     0.085462
     26 H                     0.085833
     27 H                     0.077319
     28 H                     0.073710
     29 H                     0.077305
     30 H                     0.073213
     31 H                     0.087122
     32 O                    -0.207358
     33 C                    -0.156588
     34 C                     0.025474
     35 C                    -0.143524
     36 C                    -0.144385
     37 C                     0.024030
     38 O                    -0.187710
     39 H                     0.081046
     40 H                     0.095169
     41 H                     0.092756
     42 H                     0.085278
     43 H                     0.077981
     44 H                     0.072304
     45 H                     0.078375
     46 H                     0.074020
     47 H                     0.090644
     48 H                     0.071464
     49 H                     0.108683
     50 H                     0.091778
     51 H                     0.087062
     52 H                     0.089932
     53 H                     0.090650
     54 H                     0.099367
     55 H                     0.103615
     56 H                     0.096100
  ----------------------------------------
  Sum of atomic charges =     0.000000

                    Cartesian Multipole Moments
 -----------------------------------------------------------------
    Charge (ESU x 10^10)
                -0.0000
    Dipole Moment (Debye)
         X      -2.3116      Y      -1.3720      Z      -0.0133
       Tot       2.6882
    Quadrupole Moments (Debye-Ang)
        XX    -163.9523     XY     -13.0090     YY    -148.9195
        XZ      -6.1308     YZ      -7.4161     ZZ    -166.9156

 Total job time:  154.04s(wall), 7350.91s(cpu)
        *  Thank you very much for using Q-Chem.  Have a nice day.  *
