 Q-Chem 5.0, Q-Chem, Inc., Pleasanton, CA (2017)
 Q-Chem 5.0.1 for Intel X86 EM64T Linux

User input:
--------------------------------------------------------------
$molecule
0  1
O -3.8225139461 1.4689288083 1.6099125288
C -3.6341675037 1.5628090564 0.3782167884
C -4.2387744023 0.658202621 -0.752574439
C -3.7226770051 -0.8415639975 -0.7105106754
C -2.6320647315 -1.1530347801 0.3791700914
O -1.7052870513 -0.0425980498 0.5029817934
C -0.3238373833 -0.5017980421 0.2361563659
C 0.5665520193 0.7814712093 0.2892229924
O 1.9623648501 0.3548369239 0.024944075
C 2.8876866157 1.3529011905 0.4773419229
C 4.3285081689 0.7440635946 0.6540472197
C 4.4567690295 -0.7782120054 0.2688766774
C 3.1967615685 -1.6760430895 0.5238550275
O 2.7336054799 -2.5687640736 -0.2181377518
O -2.824199054 2.5725327607 -0.2404642187
O 2.8244358923 -1.4954328462 1.9049785818
O 2.5548651761 2.5293751964 0.7361569127
C 1.8542376407 -2.5334105048 2.3198249661
C 5.1846830279 1.3732700507 -0.5328222935
C 6.6820555698 0.866663929 -0.483563731
C 6.5539753187 -0.5602782496 -1.1379803815
C 4.9855660823 -0.6896513873 -1.2268349267
O 4.5894636293 0.6613758491 -1.6931840026
H 4.70636788 0.9796132912 1.6644841015
H 5.2487941786 -1.2226908389 0.9013341894
H 5.0599990412 2.4684110406 -0.6425252267
H 7.3369681455 1.5294875304 -1.0706554494
H 7.0614128772 0.8228983923 0.5502752168
H 6.9955397215 -0.5778049041 -2.1475350739
H 7.0165196984 -1.3562016788 -0.5328142419
H 4.5919730041 -1.4735184285 -1.9029959545
O -2.5089972545 -2.2284391125 1.0000167157
C -2.1882621034 3.4093841865 0.8020765562
C -5.7963480313 0.4267869376 -0.5326757132
C -6.410062849 -0.1712335781 -1.86063627
C -5.9007123608 -1.6591070119 -1.7912548441
C -5.0710563108 -1.631217447 -0.4487091954
O -5.842266519 -0.7087127788 0.4166182708
H -4.0215199249 1.1288016071 -1.7270741461
H -3.2750967881 -1.1219249183 -1.6832964907
H -1.5936568676 2.7934551779 1.506696532
H -6.3343689718 1.3001141399 -0.1158715782
H -7.5100569504 -0.119664387 -1.8316009548
H -6.0548583946 0.3597119711 -2.7582868808
H -6.7390471923 -2.3695091407 -1.7121937013
H -5.2813780761 -1.9396489241 -2.6583092279
H -4.9267328728 -2.6085924448 0.0522714542
H -2.9398380305 3.981362587 1.3840409714
H -1.5217275741 4.1116966604 0.2684443809
H 0.9733893183 -2.0448778945 2.7802785595
H 2.3296842234 -3.1951460934 3.0716423045
H 1.5482876642 -3.1333398283 1.4387398748
H 0.2221744733 1.5118404297 -0.476213647
H 0.4862816087 1.2665610363 1.2854883782
H -0.2427545208 -0.9723439595 -0.7692018002
H 0.0153981498 -1.2399363149 0.9924250686
$end

$rem
JOBTYPE                   OPT
METHOD                    B3LYP
DFT_D                     d3_op
BASIS                     STO-3G
GEOM_OPT_MAX_CYCLES       100
GEOM_OPT_TOL_GRADIENT     300
GEOM_OPT_TOL_DISPLACEMENT 1200
GEOM_OPT_TOL_ENERGY       100
SYMMETRY                  False
THRESH                    12
SCF_CONVERGENCE           8
MAX_SUB_FILE_NUM          128
MEM_STATIC                400
MEM_TOTAL                 4000
$end
--------------------------------------------------------------

   16   -1510.2610193128      4.28E-09 Convergence criterion met
 Total energy in the final basis set = -1510.26101931
   13   -1510.2654138440      7.34E-09 Convergence criterion met
 Total energy in the final basis set = -1510.26541384
   13   -1510.2699167540      4.75E-09 Convergence criterion met
 Total energy in the final basis set = -1510.26991675
   14   -1510.2739216354      4.46E-09 Convergence criterion met
 Total energy in the final basis set = -1510.27392164
   14   -1510.2775122604      2.85E-09 Convergence criterion met
 Total energy in the final basis set = -1510.27751226
   14   -1510.2805006011      2.33E-09 Convergence criterion met
 Total energy in the final basis set = -1510.28050060
   14   -1510.2820468076      5.67E-09 Convergence criterion met
 Total energy in the final basis set = -1510.28204681
   13   -1510.2832050133      4.92E-09 Convergence criterion met
   12   -1510.2996571967      4.78E-09 Convergence criterion met
 Total energy in the final basis set = -1510.29965720
   11   -1510.2996920963      8.78E-09 Convergence criterion met
 Total energy in the final basis set = -1510.29969210
   10   -1510.2996867493      7.65E-09 Convergence criterion met
 Total energy in the final basis set = -1510.29968675
   10   -1510.2996910344      6.91E-09 Convergence criterion met
 Total energy in the final basis set = -1510.29969103
    9   -1510.2996915069      6.77E-09 Convergence criterion met
 Total energy in the final basis set = -1510.29969151
    9   -1510.2996892597      9.18E-09 Convergence criterion met
 Total energy in the final basis set = -1510.29968926

             Standard Nuclear Orientation (Angstroms)
    I     Atom           X                Y                Z
 ----------------------------------------------------------------
    1      O      -1.4973506067     0.4332632879     0.6567383406
    2      C      -2.4569860382     1.1650107318     0.3080571095
    3      C      -3.7785927457     0.6936215894    -0.3835218717
    4      C      -3.5936947313    -0.5993690762    -1.2884908207
    5      C      -2.1074356650    -1.0939835042    -1.4139529414
    6      O      -1.4240231413    -0.1823804884    -2.2874381106
    7      C       0.0456210643    -0.3968010148    -2.2289966979
    8      C       0.6116947713     0.7567103056    -1.3344547992
    9      O       2.0137175087     0.4590420513    -0.9622070636
   10      C       2.3672453315     1.2051558163     0.2060787500
   11      C       3.8220461570     0.7978921465     0.6119720060
   12      C       4.0075031938    -0.7743408614     0.7317634456
   13      C       2.6750084495    -1.5827992972     0.5298209034
   14      O       2.4622735173    -2.5121832183    -0.2783102499
   15      O      -2.4876515860     2.5701421881     0.5050912191
   16      O       1.7324346543    -1.0911940542     1.4867613942
   17      O       1.6232218638     2.0443056209     0.7643173675
   18      C       0.4400085937    -1.8144453966     1.3889580541
   19      C       4.8604606103     1.1182630291    -0.5497234050
   20      C       6.3239610450     0.9694260207     0.0300596655
   21      C       6.4773242732    -0.5969769867     0.0803549211
   22      C       5.0533772319    -1.0534464913    -0.4241581076
   23      O       4.7201789982    -0.0425365042    -1.4558829436
   24      H       4.0752175798     1.3172363990     1.5524225911
   25      H       4.4216527906    -1.0381059103     1.7223090361
   26      H       4.6641960693     2.0622778653    -1.0945695664
   27      H       7.0569931338     1.4268806393    -0.6531674459
   28      H       6.4257038247     1.4378670630     1.0221679322
   29      H       7.2613502509    -0.9474839103    -0.6097897076
   30      H       6.7013740760    -0.9720293649     1.0916076815
   31      H       4.9906770770    -2.0741517924    -0.8493692050
   32      O      -1.6037669100    -2.1265237522    -0.9237404161
   33      C      -1.2904555294     3.0235244450     1.2660449895
   34      C      -4.7980524150     0.1369414605     0.7089717169
   35      C      -6.2184130703    -0.0240908737     0.0366995425
   36      C      -6.0062184864    -1.3284538220    -0.8187443283
   37      C      -4.4924952240    -1.6482484374    -0.5109530927
   38      O      -4.3389423621    -1.2537497220     0.9102511252
   39      H      -4.2073991549     1.5402936386    -0.9476128914
   40      H      -3.9763703458    -0.4064736582    -2.3070706909
   41      H      -0.3316322713     2.6144690605     0.8709527159
   42      H      -4.7908599574     0.6942730936     1.6659230767
   43      H      -6.9927336317    -0.1665984840     0.8070629990
   44      H      -6.4874669210     0.8502363742    -0.5772354985
   45      H      -6.6525937433    -2.1488924716    -0.4684831679
   46      H      -6.1885101940    -1.1679616613    -1.8932659070
   47      H      -4.1793592305    -2.7008304606    -0.6521761517
   48      H      -1.3823282690     2.7324674035     2.3320899758
   49      H      -1.2916815627     4.1258652934     1.1883543302
   50      H      -0.3675334753    -1.0720947442     1.2186820420
   51      H       0.2618546304    -2.3543824869     2.3394184689
   52      H       0.4720408485    -2.5355382923     0.5489103368
   53      H       0.5507875611     1.7282570313    -1.8708814983
   54      H      -0.0230881011     0.8097175287    -0.4202913889
   55      H       0.4404617535    -0.3562080811    -3.2638964413
   56      H       0.2684661524    -1.3866182223    -1.7756181898
 ----------------------------------------------------------------

    8   -1510.2996894495      9.46E-09 Convergence criterion met
 Total energy in the final basis set = -1510.29968945
 Final energy is   -1510.29968944949
 **  OPTIMIZATION CONVERGED  **

                    Orbital Energies (a.u.)
 --------------------------------------------------------------

 Alpha MOs
 -- Occupied --
-18.949 -18.931 -18.925 -18.916 -18.892 -18.889 -18.884 -18.876
-18.874 -18.863 -10.115 -10.099 -10.099 -10.089 -10.066 -10.062
-10.061 -10.058 -10.056 -10.055 -10.053 -10.045 -10.040 -10.035
-10.031 -10.029 -10.024 -10.022 -10.018 -10.016  -1.024  -1.012
 -1.006  -0.995  -0.974  -0.966  -0.947  -0.937  -0.932  -0.923
 -0.767  -0.759  -0.728  -0.722  -0.712  -0.703  -0.692  -0.664
 -0.642  -0.611  -0.595  -0.577  -0.548  -0.542  -0.539  -0.533
 -0.517  -0.506  -0.483  -0.472  -0.465  -0.458  -0.455  -0.440
 -0.434  -0.430  -0.426  -0.419  -0.412  -0.406  -0.398  -0.397
 -0.388  -0.376  -0.373  -0.365  -0.360  -0.357  -0.354  -0.346
 -0.343  -0.336  -0.334  -0.330  -0.328  -0.325  -0.319  -0.314
 -0.308  -0.307  -0.303  -0.300  -0.289  -0.287  -0.282  -0.278
 -0.267  -0.261  -0.247  -0.241  -0.238  -0.233  -0.230  -0.190
 -0.176  -0.167  -0.166  -0.159  -0.155  -0.153  -0.149  -0.144
 -0.140

          Ground-State Mulliken Net Atomic Charges

     Atom                 Charge (a.u.)
  ----------------------------------------
      1 O                    -0.217863
      2 C                     0.221187
      3 C                    -0.077944
      4 C                    -0.079462
      5 C                     0.214133
      6 O                    -0.180620
      7 C                    -0.053927
      8 C                    -0.062077
      9 O                    -0.168369
     10 C                     0.218333
     11 C                    -0.077843
     12 C                    -0.077703
     13 C                     0.214421
     14 O                    -0.216943
     15 O                    -0.163994
     16 O                    -0.179210
     17 O                    -0.219345
     18 C                    -0.149251
     19 C                     0.025651
     20 C                    -0.144112
     21 C                    -0.143686
     22 C                     0.024372
     23 O                    -0.186164
     24 H                     0.085096
     25 H                     0.083530
     26 H                     0.081010
     27 H                     0.077280
     28 H                     0.073194
     29 H                     0.077478
     30 H                     0.072926
     31 H                     0.090488
     32 O                    -0.208169
     33 C                    -0.140286
     34 C                     0.025834
     35 C                    -0.143705
     36 C                    -0.143744
     37 C                     0.024900
     38 O                    -0.187158
     39 H                     0.089296
     40 H                     0.086305
     41 H                     0.115678
     42 H                     0.083508
     43 H                     0.079265
     44 H                     0.074635
     45 H                     0.079172
     46 H                     0.074216
     47 H                     0.090977
     48 H                     0.086029
     49 H                     0.089366
     50 H                     0.108422
     51 H                     0.078098
     52 H                     0.100370
     53 H                     0.077481
     54 H                     0.104323
     55 H                     0.088128
     56 H                     0.106474
  ----------------------------------------
  Sum of atomic charges =    -0.000000

                    Cartesian Multipole Moments
 -----------------------------------------------------------------
    Charge (ESU x 10^10)
                -0.0000
    Dipole Moment (Debye)
         X      -1.2199      Y       2.3137      Z       0.1404
       Tot       2.6194
    Quadrupole Moments (Debye-Ang)
        XX    -135.0225     XY       0.6317     YY    -163.1320
        XZ       9.8448     YZ      -0.3979     ZZ    -159.7848

 Total job time:  129.80s(wall), 6190.03s(cpu)
        *  Thank you very much for using Q-Chem.  Have a nice day.  *
