 Q-Chem 5.0, Q-Chem, Inc., Pleasanton, CA (2017)
 Q-Chem 5.0.1 for Intel X86 EM64T Linux

User input:
--------------------------------------------------------------
$molecule
0  1
O -3.94934 -3.66094 2.70899
C -3.26408 -4.56952 2.26188
C -3.36658 -6.02376 2.66595
C -2.97353 -6.38153 4.10864
C -2.69204 -5.22192 5.03825
O -2.03508 -4.23386 4.36181
C -0.76717 -3.90365 4.93852
C -0.04997 -2.87098 4.07519
O 1.2211 -2.54346 4.65827
C 1.7741 -1.37962 4.23539
C 2.83818 -0.85925 5.1722
C 3.12029 -1.75065 6.39043
C 2.57977 -3.16441 6.31409
O 3.1713 -4.17008 6.67914
O -2.38464 -4.28986 1.26369
O 1.32797 -3.1334 6.88899
O 1.42657 -0.78363 3.2238
C 0.80852 -4.10007 7.74175
C 4.23046 -0.77584 4.52484
C 5.07576 0.25458 5.27035
C 5.31384 -0.47188 6.57754
C 4.66002 -1.82437 6.26365
O 4.85166 -1.98479 4.87928
H 2.50697 0.15806 5.48059
H 2.823 -1.29313 7.3619
H 4.1996 -0.53937 3.43891
H 6.04392 0.33599 4.72645
H 4.62368 1.26544 5.36601
H 6.41167 -0.58583 6.71891
H 4.86082 0.00189 7.47542
H 5.10696 -2.61181 6.90976
O -2.58891 -5.37665 6.24948
C -2.18215 -3.03161 0.73625
C -4.82098 -6.51724 2.6232
C -4.85647 -8.04056 2.50276
C -4.42697 -8.44227 3.89766
C -4.28421 -7.06554 4.55373
O -5.28432 -6.29537 3.93139
H -2.74612 -6.60468 1.94586
H -2.10827 -7.07797 4.17593
H -1.83164 -2.3356 1.52784
H -5.41352 -6.05105 1.80528
H -5.9173 -8.34613 2.35744
H -4.23664 -8.45161 1.67698
H -5.26432 -8.99867 4.37524
H -3.49335 -9.04257 3.9554
H -4.36538 -7.16521 5.65852
H -3.12444 -2.64756 0.29037
H -1.40888 -3.08968 -0.05685
H -0.20663 -3.80032 8.0734
H 1.44764 -4.19418 8.64589
H 0.75055 -5.0842 7.22834
H 0.09964 -3.25855 3.04387
H -0.70962 -1.97318 4.03935
H -0.12743 -4.81249 5.00301
H -0.94585 -3.45643 5.93454
$end

$opt
CONSTRAINT
tors           1           2           3           4     -66.316
tors           3           4           5           6     -38.201
tors           4           5           6           7    -121.796
tors           5           6           7           8    +175.851
tors           6           7           8           9    -180.000
tors           7           8           9          10    -161.053
tors           8           9          10          11    +161.053
tors           9          10          11          12      +1.625
tors          11          12          13          14    +138.655
ENDCONSTRAINT
$end

$rem
JOBTYPE                   OPT
METHOD                    B3LYP
DFT_D                     d3_op
BASIS                     STO-3G
GEOM_OPT_MAX_CYCLES       100
GEOM_OPT_TOL_GRADIENT     300
GEOM_OPT_TOL_DISPLACEMENT 1200
GEOM_OPT_TOL_ENERGY       100
SYMMETRY                  False
THRESH                    12
SCF_CONVERGENCE           8
MAX_SUB_FILE_NUM          128
MEM_STATIC                400
MEM_TOTAL                 4000
$end
--------------------------------------------------------------

   15   -1510.0876116684      7.21E-09 Convergence criterion met
 Total energy in the final basis set = -1510.08761167
   15   -1510.1595352966      2.61E-09 Convergence criterion met
 Total energy in the final basis set = -1510.15953530
   15   -1510.2018633646      2.23E-09 Convergence criterion met
 Total energy in the final basis set = -1510.20186336
   15   -1510.2267773861      1.56E-09 Convergence criterion met
 Total energy in the final basis set = -1510.22677739
   13   -1510.2391714375      6.69E-09 Convergence criterion met
 Total energy in the final basis set = -1510.23917144
   13   -1510.2465109022      9.50E-09 Convergence criterion met
 Total energy in the final basis set = -1510.24651090
   12   -1510.2510727233      8.88E-09 Convergence criterion met
 Total energy in the final basis set = -1510.25107272
   12   -1510.2538634910      9.11E-09 Convergence criterion met
   13   -1510.2608799833      9.22E-09 Convergence criterion met
 Total energy in the final basis set = -1510.26087998
   12   -1510.2609471464      7.08E-09 Convergence criterion met
 Total energy in the final basis set = -1510.26094715
   12   -1510.2609684178      6.17E-09 Convergence criterion met
 Total energy in the final basis set = -1510.26096842
   11   -1510.2609730836      7.81E-09 Convergence criterion met
 Total energy in the final basis set = -1510.26097308
   11   -1510.2609979022      7.11E-09 Convergence criterion met
 Total energy in the final basis set = -1510.26099790
   10   -1510.2609967303      8.06E-09 Convergence criterion met
 Total energy in the final basis set = -1510.26099673

             Standard Nuclear Orientation (Angstroms)
    I     Atom           X                Y                Z
 ----------------------------------------------------------------
    1      O      -3.8225139461     1.4689288083     1.6099125288
    2      C      -3.6341675037     1.5628090564     0.3782167884
    3      C      -4.2387744023     0.6582026210    -0.7525744390
    4      C      -3.7226770051    -0.8415639975    -0.7105106754
    5      C      -2.6320647315    -1.1530347801     0.3791700914
    6      O      -1.7052870513    -0.0425980498     0.5029817934
    7      C      -0.3238373833    -0.5017980421     0.2361563659
    8      C       0.5665520193     0.7814712093     0.2892229924
    9      O       1.9623648501     0.3548369239     0.0249440750
   10      C       2.8876866157     1.3529011905     0.4773419229
   11      C       4.3285081689     0.7440635946     0.6540472197
   12      C       4.4567690295    -0.7782120054     0.2688766774
   13      C       3.1967615685    -1.6760430895     0.5238550275
   14      O       2.7336054799    -2.5687640736    -0.2181377518
   15      O      -2.8241990540     2.5725327607    -0.2404642187
   16      O       2.8244358923    -1.4954328462     1.9049785818
   17      O       2.5548651761     2.5293751964     0.7361569127
   18      C       1.8542376407    -2.5334105048     2.3198249661
   19      C       5.1846830279     1.3732700507    -0.5328222935
   20      C       6.6820555698     0.8666639290    -0.4835637310
   21      C       6.5539753187    -0.5602782496    -1.1379803815
   22      C       4.9855660823    -0.6896513873    -1.2268349267
   23      O       4.5894636293     0.6613758491    -1.6931840026
   24      H       4.7063678800     0.9796132912     1.6644841015
   25      H       5.2487941786    -1.2226908389     0.9013341894
   26      H       5.0599990412     2.4684110406    -0.6425252267
   27      H       7.3369681455     1.5294875304    -1.0706554494
   28      H       7.0614128772     0.8228983923     0.5502752168
   29      H       6.9955397215    -0.5778049041    -2.1475350739
   30      H       7.0165196984    -1.3562016788    -0.5328142419
   31      H       4.5919730041    -1.4735184285    -1.9029959545
   32      O      -2.5089972545    -2.2284391125     1.0000167157
   33      C      -2.1882621034     3.4093841865     0.8020765562
   34      C      -5.7963480313     0.4267869376    -0.5326757132
   35      C      -6.4100628490    -0.1712335781    -1.8606362700
   36      C      -5.9007123608    -1.6591070119    -1.7912548441
   37      C      -5.0710563108    -1.6312174470    -0.4487091954
   38      O      -5.8422665190    -0.7087127788     0.4166182708
   39      H      -4.0215199249     1.1288016071    -1.7270741461
   40      H      -3.2750967881    -1.1219249183    -1.6832964907
   41      H      -1.5936568676     2.7934551779     1.5066965320
   42      H      -6.3343689718     1.3001141399    -0.1158715782
   43      H      -7.5100569504    -0.1196643870    -1.8316009548
   44      H      -6.0548583946     0.3597119711    -2.7582868808
   45      H      -6.7390471923    -2.3695091407    -1.7121937013
   46      H      -5.2813780761    -1.9396489241    -2.6583092279
   47      H      -4.9267328728    -2.6085924448     0.0522714542
   48      H      -2.9398380305     3.9813625870     1.3840409714
   49      H      -1.5217275741     4.1116966604     0.2684443809
   50      H       0.9733893183    -2.0448778945     2.7802785595
   51      H       2.3296842234    -3.1951460934     3.0716423045
   52      H       1.5482876642    -3.1333398283     1.4387398748
   53      H       0.2221744733     1.5118404297    -0.4762136470
   54      H       0.4862816087     1.2665610363     1.2854883782
   55      H      -0.2427545208    -0.9723439595    -0.7692018002
   56      H       0.0153981498    -1.2399363149     0.9924250686
 ----------------------------------------------------------------

    9   -1510.2609976401      6.79E-09 Convergence criterion met
 Total energy in the final basis set = -1510.26099764
 Final energy is   -1510.26099764012
 **  OPTIMIZATION CONVERGED  **

                    Orbital Energies (a.u.)
 --------------------------------------------------------------

 Alpha MOs
 -- Occupied --
-18.943 -18.926 -18.924 -18.919 -18.901 -18.888 -18.887 -18.882
-18.871 -18.864 -10.111 -10.107 -10.102 -10.093 -10.081 -10.079
-10.062 -10.060 -10.059 -10.058 -10.058 -10.056 -10.044 -10.041
-10.038 -10.036 -10.023 -10.022 -10.020 -10.019  -1.021  -1.014
 -1.005  -1.002  -0.972  -0.969  -0.948  -0.941  -0.933  -0.928
 -0.767  -0.763  -0.732  -0.723  -0.710  -0.705  -0.702  -0.660
 -0.658  -0.611  -0.599  -0.589  -0.548  -0.547  -0.540  -0.538
 -0.517  -0.509  -0.493  -0.472  -0.462  -0.459  -0.455  -0.447
 -0.442  -0.434  -0.430  -0.413  -0.410  -0.409  -0.408  -0.404
 -0.400  -0.380  -0.377  -0.368  -0.367  -0.364  -0.352  -0.350
 -0.344  -0.341  -0.334  -0.332  -0.330  -0.326  -0.323  -0.314
 -0.313  -0.308  -0.306  -0.304  -0.300  -0.297  -0.288  -0.275
 -0.271  -0.252  -0.249  -0.244  -0.242  -0.236  -0.234  -0.185
 -0.175  -0.170  -0.168  -0.165  -0.161  -0.153  -0.147  -0.145
 -0.142

          Ground-State Mulliken Net Atomic Charges

     Atom                 Charge (a.u.)
  ----------------------------------------
      1 O                    -0.214501
      2 C                     0.213592
      3 C                    -0.079739
      4 C                    -0.078706
      5 C                     0.221956
      6 O                    -0.190120
      7 C                    -0.045470
      8 C                    -0.042200
      9 O                    -0.169638
     10 C                     0.217608
     11 C                    -0.074877
     12 C                    -0.079378
     13 C                     0.220590
     14 O                    -0.221728
     15 O                    -0.172020
     16 O                    -0.179980
     17 O                    -0.210585
     18 C                    -0.138489
     19 C                     0.023719
     20 C                    -0.145762
     21 C                    -0.141168
     22 C                     0.023149
     23 O                    -0.192548
     24 H                     0.090817
     25 H                     0.083941
     26 H                     0.085599
     27 H                     0.078990
     28 H                     0.073984
     29 H                     0.078432
     30 H                     0.073688
     31 H                     0.090654
     32 O                    -0.188488
     33 C                    -0.128724
     34 C                     0.025905
     35 C                    -0.144233
     36 C                    -0.143840
     37 C                     0.023638
     38 O                    -0.186347
     39 H                     0.085073
     40 H                     0.084220
     41 H                     0.089621
     42 H                     0.084050
     43 H                     0.078256
     44 H                     0.073446
     45 H                     0.078601
     46 H                     0.072627
     47 H                     0.089768
     48 H                     0.086884
     49 H                     0.089130
     50 H                     0.084683
     51 H                     0.083762
     52 H                     0.100622
     53 H                     0.093407
     54 H                     0.092901
     55 H                     0.084819
     56 H                     0.090412
  ----------------------------------------
  Sum of atomic charges =     0.000000

                    Cartesian Multipole Moments
 -----------------------------------------------------------------
    Charge (ESU x 10^10)
                 0.0000
    Dipole Moment (Debye)
         X       1.9236      Y       0.0100      Z      -1.4568
       Tot       2.4130
    Quadrupole Moments (Debye-Ang)
        XX    -146.6506     XY      -3.4965     YY    -162.0017
        XZ      18.1928     YZ       0.2772     ZZ    -162.3293

 Total job time:  92.36s(wall), 4397.34s(cpu)
        *  Thank you very much for using Q-Chem.  Have a nice day.  *
