 Q-Chem 5.0, Q-Chem, Inc., Pleasanton, CA (2017)
 Q-Chem 5.0.1 for Intel X86 EM64T Linux

User input:
--------------------------------------------------------------
$molecule
0  1
O -5.3660227513 -2.5004792991 1.5165526781
C -4.9787681004 -1.6084397973 0.7306287057
C -5.1103932299 -0.0583515765 0.9402026259
C -3.8054499578 0.7743261828 0.6102292354
C -2.5263256828 -0.112165783 0.4121354399
O -1.5648392258 0.6343717075 -0.3397473515
C -0.3632453031 -0.1968763803 -0.600421588
C 0.6163407498 0.7066734738 -1.4214788631
O 1.8402572196 -0.0802829046 -1.7099849103
C 3.0046524654 0.5987816066 -1.2239575828
C 4.1736661336 -0.4343307251 -1.1017353744
C 5.4170144194 0.1153360077 -0.2923123535
C 5.1749478084 1.4962022522 0.422029211
O 5.8097114609 2.5550608785 0.2250324071
O -4.5095840737 -1.8600824278 -0.6008943436
O 4.2047442142 1.3184908649 1.4638461078
O 3.0314470524 1.8125396498 -0.9195698935
C 3.9354176587 2.6156646308 2.1208583917
C 3.7962740673 -1.7344722248 -0.2635631193
C 4.8184473021 -2.8686266255 -0.6619508318
C 6.1272448919 -2.346247301 0.0393987435
C 5.5918200019 -1.0516196726 0.7735649119
O 4.1925996408 -1.395820849 1.1201897388
H 4.4746639721 -0.723618169 -2.1262040345
H 6.3026759503 0.2278726722 -0.9414783516
H 2.7252416754 -2.0108206256 -0.3146922678
H 4.496338799 -3.8367054919 -0.2459590348
H 4.9277229792 -2.9716335311 -1.7532984262
H 6.5122860995 -3.0734843573 0.7717605606
H 6.928494031 -2.1114262732 -0.6795026935
H 6.1538473863 -0.7606576284 1.6817643272
O -2.3216448503 -1.2604161719 0.8629535712
C -4.3746749233 -3.3168358403 -0.8185820343
C -6.1063545693 0.5456546215 -0.1464270514
C -6.4652549657 2.0331339929 0.2514359301
C -5.1571395453 2.7927678845 -0.1836044798
C -4.2634420567 1.5882074111 -0.6761780219
O -5.2404222424 0.6954339971 -1.3383517038
H -5.4616320926 0.1167151557 1.9716941828
H -3.5839485803 1.4748582379 1.4377541362
H -5.3229650743 -3.8534210173 -0.6111989052
H -6.9755919168 -0.099873368 -0.3790990931
H -7.3442712644 2.3815612125 -0.3134766003
H -6.6755081942 2.1322617203 1.3284168192
H -5.3533015043 3.4886409574 -1.0149323738
H -4.6907789578 3.3512382507 0.6436075201
H -3.4370484222 1.849652866 -1.3646681809
H -3.5780555712 -3.7463174051 -0.1767007808
H -4.1003277643 -3.4429248922 -1.8820938079
H 3.2336872682 2.3997147253 2.947412855
H 3.4683275727 3.332834417 1.4147460866
H 4.8610328843 3.0722947691 2.5271559225
H 0.1402132877 1.0020258567 -2.3808517345
H 0.8867026539 1.6259295988 -0.8592220511
H -0.6298793463 -1.1085354445 -1.1781648566
H 0.1125978617 -0.5195813162 0.3517813077
$end

$rem
JOBTYPE                   OPT
METHOD                    B3LYP
DFT_D                     d3_op
BASIS                     STO-3G
GEOM_OPT_MAX_CYCLES       100
GEOM_OPT_TOL_GRADIENT     300
GEOM_OPT_TOL_DISPLACEMENT 1200
GEOM_OPT_TOL_ENERGY       100
SYMMETRY                  False
THRESH                    12
SCF_CONVERGENCE           8
MAX_SUB_FILE_NUM          128
MEM_STATIC                400
MEM_TOTAL                 4000
$end
--------------------------------------------------------------

   16   -1510.2799778206      5.11E-09 Convergence criterion met
 Total energy in the final basis set = -1510.27997782
   14   -1510.2823585529      2.11E-09 Convergence criterion met
 Total energy in the final basis set = -1510.28235855
   13   -1510.2830420796      8.40E-09 Convergence criterion met
 Total energy in the final basis set = -1510.28304208
   13   -1510.2834777361      6.72E-09 Convergence criterion met
 Total energy in the final basis set = -1510.28347774
   13   -1510.2841594779      8.94E-09 Convergence criterion met
 Total energy in the final basis set = -1510.28415948
   14   -1510.2845105908      1.67E-09 Convergence criterion met
 Total energy in the final basis set = -1510.28451059
   14   -1510.2843363225      1.86E-09 Convergence criterion met
 Total energy in the final basis set = -1510.28433632
   13   -1510.2847889730      8.50E-09 Convergence criterion met
   10   -1510.2914450688      5.34E-09 Convergence criterion met
 Total energy in the final basis set = -1510.29144507
    9   -1510.2914484015      8.29E-09 Convergence criterion met
 Total energy in the final basis set = -1510.29144840
    9   -1510.2914483380      9.50E-09 Convergence criterion met
 Total energy in the final basis set = -1510.29144834
    9   -1510.2914491267      7.18E-09 Convergence criterion met
 Total energy in the final basis set = -1510.29144913
    9   -1510.2914496473      5.19E-09 Convergence criterion met
 Total energy in the final basis set = -1510.29144965
    9   -1510.2914510768      6.95E-09 Convergence criterion met
 Total energy in the final basis set = -1510.29145108

             Standard Nuclear Orientation (Angstroms)
    I     Atom           X                Y                Z
 ----------------------------------------------------------------
    1      O      -2.2988007562     0.8232302303     2.7437496587
    2      C      -3.1719899996     0.3424470654     1.9882228251
    3      C      -4.0479594687     1.1430485801     0.9501632318
    4      C      -3.3924302417     1.2607032833    -0.4889265003
    5      C      -2.0341594165     0.5011113990    -0.6163209232
    6      O      -1.4177477944     0.8753593947    -1.8455655280
    7      C      -0.0957449877     0.2143403591    -2.0027140701
    8      C       1.0322878843     1.3040362135    -1.9647483872
    9      O       2.3319698503     0.5982723168    -1.8902159775
   10      C       3.1221120530     1.1138624127    -0.8102542440
   11      C       4.4257691247     0.2495349525    -0.6549978038
   12      C       4.4883867090    -0.5032208155     0.7453705543
   13      C       3.2852686243    -0.2014755094     1.7005743245
   14      O       3.3523797191     0.1504415503     2.8984684256
   15      O      -3.5979500001    -1.0240925797     2.0117565588
   16      O       2.0622212114    -0.4091549053     0.9883403603
   17      O       2.8104937336     2.1197208985    -0.1347310955
   18      C       0.9063137064    -0.0530862162     1.8472583836
   19      C       4.4928844068    -0.9776427321    -1.6556267704
   20      C       5.9611764451    -1.5612149981    -1.6376890094
   21      C       5.9685020393    -2.3369409762    -0.2692296682
   22      C       4.5149952293    -2.0211739685     0.2622573445
   23      O       3.6920341174    -2.0168609675    -0.9670106779
   24      H       5.2952538273     0.9223441711    -0.7708777102
   25      H       5.4117765242    -0.2455466833     1.2928818360
   26      H       4.0756594147    -0.7704602083    -2.6590480751
   27      H       6.1139866682    -2.2429185250    -2.4893234331
   28      H       6.7233237991    -0.7666712591    -1.6810446702
   29      H       6.0947108977    -3.4209366158    -0.4204102535
   30      H       6.7506915265    -1.9817713157     0.4205147176
   31      H       4.1121154299    -2.7448384369     0.9972004479
   32      O      -1.5563325690    -0.3274536461     0.1958166856
   33      C      -2.7351537970    -1.8012602091     2.9283159625
   34      C      -5.4192365553     0.4279175507     0.5909140869
   35      C      -6.3697751056     1.4879871507    -0.0938517542
   36      C      -5.7168859361     1.6080896163    -1.5205728950
   37      C      -4.5189376769     0.5867403907    -1.3918252521
   38      O      -5.0571382602    -0.4810108208    -0.5230387105
   39      H      -4.2140867211     2.1500732432     1.3726797484
   40      H      -3.2267693945     2.3124768199    -0.7832618548
   41      H      -2.7407443136    -1.3803251853     3.9546509507
   42      H      -5.8688278750    -0.1447303532     1.4242501591
   43      H      -7.3989406157     1.0996422784    -0.1529680099
   44      H      -6.3838340123     2.4460319279     0.4497740191
   45      H      -6.4121819103     1.2875028149    -2.3127746150
   46      H      -5.3687529199     2.6285370870    -1.7471989125
   47      H      -4.1476195816     0.1683091300    -2.3476532920
   48      H      -1.6884286034    -1.8303394592     2.5629314612
   49      H      -3.1498109927    -2.8259816719     2.9434778915
   50      H      -0.0042013550    -0.2103848086     1.2296619308
   51      H       0.9610995307     1.0056028118     2.1711976908
   52      H       0.8657261479    -0.6931733049     2.7510467506
   53      H       1.0029271310     1.9296786074    -2.8819805606
   54      H       0.9265270211     1.9614717029    -1.0738660735
   55      H      -0.0956702592    -0.3154236820    -2.9773398939
   56      H       0.0556886547    -0.5161201758    -1.1798927877
 ----------------------------------------------------------------

    9   -1510.2914509071      2.94E-09 Convergence criterion met
 Total energy in the final basis set = -1510.29145091
 Final energy is   -1510.29145090708
 **  OPTIMIZATION CONVERGED  **

                    Orbital Energies (a.u.)
 --------------------------------------------------------------

 Alpha MOs
 -- Occupied --
-18.950 -18.933 -18.924 -18.924 -18.898 -18.891 -18.886 -18.871
-18.866 -18.860 -10.118 -10.100 -10.092 -10.090 -10.074 -10.070
-10.065 -10.060 -10.058 -10.056 -10.054 -10.046 -10.038 -10.037
-10.036 -10.033 -10.023 -10.021 -10.019 -10.018  -1.028  -1.012
 -1.000  -0.999  -0.973  -0.968  -0.953  -0.936  -0.926  -0.925
 -0.767  -0.761  -0.730  -0.722  -0.715  -0.707  -0.695  -0.653
 -0.645  -0.619  -0.596  -0.579  -0.548  -0.543  -0.539  -0.535
 -0.518  -0.509  -0.486  -0.479  -0.466  -0.465  -0.455  -0.438
 -0.436  -0.432  -0.427  -0.412  -0.409  -0.404  -0.400  -0.400
 -0.396  -0.382  -0.374  -0.367  -0.365  -0.353  -0.348  -0.347
 -0.341  -0.337  -0.335  -0.331  -0.328  -0.328  -0.318  -0.315
 -0.308  -0.305  -0.303  -0.302  -0.292  -0.289  -0.281  -0.279
 -0.271  -0.261  -0.249  -0.245  -0.240  -0.236  -0.231  -0.194
 -0.172  -0.172  -0.166  -0.166  -0.157  -0.148  -0.143  -0.141
 -0.141

          Ground-State Mulliken Net Atomic Charges

     Atom                 Charge (a.u.)
  ----------------------------------------
      1 O                    -0.222431
      2 C                     0.212996
      3 C                    -0.081076
      4 C                    -0.078072
      5 C                     0.221731
      6 O                    -0.169359
      7 C                    -0.054066
      8 C                    -0.052605
      9 O                    -0.171149
     10 C                     0.217084
     11 C                    -0.077551
     12 C                    -0.080010
     13 C                     0.207902
     14 O                    -0.211654
     15 O                    -0.167930
     16 O                    -0.173962
     17 O                    -0.219391
     18 C                    -0.142971
     19 C                     0.024797
     20 C                    -0.144832
     21 C                    -0.143493
     22 C                     0.025907
     23 O                    -0.186879
     24 H                     0.084343
     25 H                     0.084636
     26 H                     0.090196
     27 H                     0.077210
     28 H                     0.072774
     29 H                     0.077548
     30 H                     0.074055
     31 H                     0.083095
     32 O                    -0.208886
     33 C                    -0.127203
     34 C                     0.026348
     35 C                    -0.144407
     36 C                    -0.143439
     37 C                     0.026027
     38 O                    -0.186266
     39 H                     0.083865
     40 H                     0.088727
     41 H                     0.086949
     42 H                     0.089596
     43 H                     0.078437
     44 H                     0.073984
     45 H                     0.078807
     46 H                     0.074163
     47 H                     0.084979
     48 H                     0.091321
     49 H                     0.088607
     50 H                     0.106715
     51 H                     0.087714
     52 H                     0.082568
     53 H                     0.083590
     54 H                     0.101305
     55 H                     0.090148
     56 H                     0.109512
  ----------------------------------------
  Sum of atomic charges =     0.000000

                    Cartesian Multipole Moments
 -----------------------------------------------------------------
    Charge (ESU x 10^10)
                 0.0000
    Dipole Moment (Debye)
         X      -0.5791      Y       0.4243      Z      -2.4838
       Tot       2.5855
    Quadrupole Moments (Debye-Ang)
        XX    -139.9328     XY     -11.9699     YY    -160.2287
        XZ      -6.6746     YZ      -8.1855     ZZ    -161.6519

 Total job time:  144.56s(wall), 6886.86s(cpu)
        *  Thank you very much for using Q-Chem.  Have a nice day.  *
