 Q-Chem 5.0, Q-Chem, Inc., Pleasanton, CA (2017)
 Q-Chem 5.0.1 for Intel X86 EM64T Linux

User input:
--------------------------------------------------------------
$molecule
0  1
O -3.94934 -3.66094 2.70899
C -3.26408 -4.56952 2.26188
C -3.36658 -6.02376 2.66595
C -3.36795 -7.06811 1.5376
C -3.08802 -6.55426 0.14271
O -2.66202 -7.57959 -0.65268
C -2.31966 -7.15959 -1.97769
C -1.85473 -8.35417 -2.8041
O -1.51265 -7.92718 -4.13208
C -2.17036 -8.55947 -5.13546
C -2.13049 -7.79608 -6.43788
C -3.09436 -8.30819 -7.51814
C -4.18404 -9.24678 -7.04025
O -4.34885 -10.39557 -7.42455
O -2.19412 -4.23487 1.4891
O -5.03338 -8.76454 -6.09023
O -2.64763 -9.67964 -5.00066
C -6.07062 -9.48154 -5.53181
C -2.62496 -6.33019 -6.3336
C -2.00914 -5.50763 -7.46537
C -2.7507 -6.07278 -8.6618
C -3.75391 -6.98967 -7.95122
O -3.97834 -6.35968 -6.71374
H -1.06533 -7.76951 -6.76119
H -2.54903 -8.82808 -8.33657
H -2.40624 -5.85141 -5.35455
H -2.33912 -4.45521 -7.30878
H -0.90071 -5.53106 -7.54002
H -3.2654 -5.23576 -9.18338
H -2.12563 -6.64665 -9.38002
H -4.65383 -7.16124 -8.58244
O -3.63898 -5.56075 -0.31795
C -1.89346 -2.95169 1.08256
C -2.12227 -6.45723 3.46454
C -2.45734 -7.66383 4.33727
C -2.58223 -8.74099 3.2839
C -2.18982 -7.95001 2.03007
O -1.26231 -7.0052 2.49924
H -4.26104 -6.11138 3.32351
H -4.31827 -7.64426 1.48647
H -1.71492 -2.30159 1.96552
H -1.69759 -5.64062 4.08961
H -1.55922 -7.87841 4.96001
H -3.34167 -7.54014 4.99876
H -1.82687 -9.52932 3.49995
H -3.59064 -9.19816 3.18621
H -1.80636 -8.6609 1.26777
H -2.7261 -2.53952 0.47337
H -0.97389 -2.9733 0.46262
H -6.59381 -8.84483 -4.78934
H -5.67757 -10.38338 -5.01562
H -6.79439 -9.78329 -6.31872
H -0.95028 -8.78747 -2.32647
H -2.66103 -9.12088 -2.76077
H -1.50397 -6.40195 -1.94556
H -3.21023 -6.72393 -2.48562
$end

$opt
CONSTRAINT
tors           1           2           3           4    +134.469
tors           3           4           5           6    +158.929
tors           4           5           6           7    -177.416
tors           5           6           7           8    -180.000
tors           6           7           8           9    -180.000
tors           7           8           9          10    -123.763
tors           8           9          10          11    +161.053
tors           9          10          11          12    -167.741
tors          11          12          13          14    -119.972
ENDCONSTRAINT
$end

$rem
JOBTYPE                   OPT
METHOD                    B3LYP
DFT_D                     d3_op
BASIS                     STO-3G
GEOM_OPT_MAX_CYCLES       100
GEOM_OPT_TOL_GRADIENT     300
GEOM_OPT_TOL_DISPLACEMENT 1200
GEOM_OPT_TOL_ENERGY       100
SYMMETRY                  False
THRESH                    12
SCF_CONVERGENCE           8
MAX_SUB_FILE_NUM          128
MEM_STATIC                400
MEM_TOTAL                 4000
$end
--------------------------------------------------------------

   15   -1510.1451344152      9.72E-09 Convergence criterion met
 Total energy in the final basis set = -1510.14513442
   13   -1510.2149666806      6.27E-09 Convergence criterion met
 Total energy in the final basis set = -1510.21496668
   13   -1510.2525847922      6.42E-09 Convergence criterion met
 Total energy in the final basis set = -1510.25258479
   13   -1510.2691585437      5.93E-09 Convergence criterion met
 Total energy in the final basis set = -1510.26915854
   13   -1510.2749663415      5.86E-09 Convergence criterion met
 Total energy in the final basis set = -1510.27496634
   13   -1510.2772301412      2.88E-09 Convergence criterion met
 Total energy in the final basis set = -1510.27723014
   13   -1510.2781492627      2.98E-09 Convergence criterion met
 Total energy in the final basis set = -1510.27814926
   12   -1510.2787113219      6.82E-09 Convergence criterion met
   12   -1510.2799060025      3.97E-09 Convergence criterion met
 Total energy in the final basis set = -1510.27990600
   11   -1510.2799628665      6.87E-09 Convergence criterion met
 Total energy in the final basis set = -1510.27996287
   10   -1510.2799978822      9.27E-09 Convergence criterion met
 Total energy in the final basis set = -1510.27999788
   10   -1510.2800183281      7.46E-09 Convergence criterion met
 Total energy in the final basis set = -1510.28001833
   10   -1510.2800246088      5.07E-09 Convergence criterion met
 Total energy in the final basis set = -1510.28002461
    9   -1510.2800189666      7.29E-09 Convergence criterion met
 Total energy in the final basis set = -1510.28001897

             Standard Nuclear Orientation (Angstroms)
    I     Atom           X                Y                Z
 ----------------------------------------------------------------
    1      O      -5.3660227513    -2.5004792991     1.5165526781
    2      C      -4.9787681004    -1.6084397973     0.7306287057
    3      C      -5.1103932299    -0.0583515765     0.9402026259
    4      C      -3.8054499578     0.7743261828     0.6102292354
    5      C      -2.5263256828    -0.1121657830     0.4121354399
    6      O      -1.5648392258     0.6343717075    -0.3397473515
    7      C      -0.3632453031    -0.1968763803    -0.6004215880
    8      C       0.6163407498     0.7066734738    -1.4214788631
    9      O       1.8402572196    -0.0802829046    -1.7099849103
   10      C       3.0046524654     0.5987816066    -1.2239575828
   11      C       4.1736661336    -0.4343307251    -1.1017353744
   12      C       5.4170144194     0.1153360077    -0.2923123535
   13      C       5.1749478084     1.4962022522     0.4220292110
   14      O       5.8097114609     2.5550608785     0.2250324071
   15      O      -4.5095840737    -1.8600824278    -0.6008943436
   16      O       4.2047442142     1.3184908649     1.4638461078
   17      O       3.0314470524     1.8125396498    -0.9195698935
   18      C       3.9354176587     2.6156646308     2.1208583917
   19      C       3.7962740673    -1.7344722248    -0.2635631193
   20      C       4.8184473021    -2.8686266255    -0.6619508318
   21      C       6.1272448919    -2.3462473010     0.0393987435
   22      C       5.5918200019    -1.0516196726     0.7735649119
   23      O       4.1925996408    -1.3958208490     1.1201897388
   24      H       4.4746639721    -0.7236181690    -2.1262040345
   25      H       6.3026759503     0.2278726722    -0.9414783516
   26      H       2.7252416754    -2.0108206256    -0.3146922678
   27      H       4.4963387990    -3.8367054919    -0.2459590348
   28      H       4.9277229792    -2.9716335311    -1.7532984262
   29      H       6.5122860995    -3.0734843573     0.7717605606
   30      H       6.9284940310    -2.1114262732    -0.6795026935
   31      H       6.1538473863    -0.7606576284     1.6817643272
   32      O      -2.3216448503    -1.2604161719     0.8629535712
   33      C      -4.3746749233    -3.3168358403    -0.8185820343
   34      C      -6.1063545693     0.5456546215    -0.1464270514
   35      C      -6.4652549657     2.0331339929     0.2514359301
   36      C      -5.1571395453     2.7927678845    -0.1836044798
   37      C      -4.2634420567     1.5882074111    -0.6761780219
   38      O      -5.2404222424     0.6954339971    -1.3383517038
   39      H      -5.4616320926     0.1167151557     1.9716941828
   40      H      -3.5839485803     1.4748582379     1.4377541362
   41      H      -5.3229650743    -3.8534210173    -0.6111989052
   42      H      -6.9755919168    -0.0998733680    -0.3790990931
   43      H      -7.3442712644     2.3815612125    -0.3134766003
   44      H      -6.6755081942     2.1322617203     1.3284168192
   45      H      -5.3533015043     3.4886409574    -1.0149323738
   46      H      -4.6907789578     3.3512382507     0.6436075201
   47      H      -3.4370484222     1.8496528660    -1.3646681809
   48      H      -3.5780555712    -3.7463174051    -0.1767007808
   49      H      -4.1003277643    -3.4429248922    -1.8820938079
   50      H       3.2336872682     2.3997147253     2.9474128550
   51      H       3.4683275727     3.3328344170     1.4147460866
   52      H       4.8610328843     3.0722947691     2.5271559225
   53      H       0.1402132877     1.0020258567    -2.3808517345
   54      H       0.8867026539     1.6259295988    -0.8592220511
   55      H      -0.6298793463    -1.1085354445    -1.1781648566
   56      H       0.1125978617    -0.5195813162     0.3517813077
 ----------------------------------------------------------------

    9   -1510.2800196509      3.41E-09 Convergence criterion met
 Total energy in the final basis set = -1510.28001965
 Final energy is   -1510.28001965090
 **  OPTIMIZATION CONVERGED  **

                    Orbital Energies (a.u.)
 --------------------------------------------------------------

 Alpha MOs
 -- Occupied --
-18.941 -18.940 -18.923 -18.921 -18.892 -18.890 -18.889 -18.882
-18.864 -18.861 -10.111 -10.106 -10.091 -10.090 -10.080 -10.078
-10.063 -10.061 -10.061 -10.060 -10.056 -10.054 -10.043 -10.040
-10.035 -10.035 -10.022 -10.021 -10.021 -10.020  -1.023  -1.018
 -1.001  -0.999  -0.972  -0.971  -0.949  -0.942  -0.926  -0.924
 -0.766  -0.763  -0.730  -0.723  -0.718  -0.707  -0.697  -0.654
 -0.652  -0.619  -0.598  -0.581  -0.547  -0.546  -0.539  -0.538
 -0.520  -0.512  -0.487  -0.477  -0.469  -0.463  -0.451  -0.439
 -0.435  -0.434  -0.432  -0.411  -0.410  -0.405  -0.405  -0.403
 -0.396  -0.384  -0.372  -0.367  -0.363  -0.358  -0.350  -0.346
 -0.343  -0.337  -0.334  -0.332  -0.331  -0.329  -0.319  -0.316
 -0.313  -0.307  -0.304  -0.301  -0.297  -0.286  -0.284  -0.276
 -0.274  -0.263  -0.257  -0.244  -0.243  -0.236  -0.235  -0.186
 -0.185  -0.168  -0.166  -0.164  -0.160  -0.145  -0.144  -0.142
 -0.141

          Ground-State Mulliken Net Atomic Charges

     Atom                 Charge (a.u.)
  ----------------------------------------
      1 O                    -0.216324
      2 C                     0.212247
      3 C                    -0.079741
      4 C                    -0.078475
      5 C                     0.216133
      6 O                    -0.174118
      7 C                    -0.046357
      8 C                    -0.050802
      9 O                    -0.175574
     10 C                     0.217192
     11 C                    -0.078531
     12 C                    -0.080652
     13 C                     0.212758
     14 O                    -0.217988
     15 O                    -0.169604
     16 O                    -0.170555
     17 O                    -0.205321
     18 C                    -0.128072
     19 C                     0.025437
     20 C                    -0.142892
     21 C                    -0.144800
     22 C                     0.026712
     23 O                    -0.185560
     24 H                     0.086608
     25 H                     0.084451
     26 H                     0.086898
     27 H                     0.078658
     28 H                     0.073695
     29 H                     0.078410
     30 H                     0.074103
     31 H                     0.084441
     32 O                    -0.210562
     33 C                    -0.127987
     34 C                     0.026229
     35 C                    -0.144697
     36 C                    -0.143144
     37 C                     0.024911
     38 O                    -0.186129
     39 H                     0.084916
     40 H                     0.084868
     41 H                     0.088165
     42 H                     0.083078
     43 H                     0.078160
     44 H                     0.074169
     45 H                     0.078021
     46 H                     0.073296
     47 H                     0.089254
     48 H                     0.089782
     49 H                     0.087725
     50 H                     0.087091
     51 H                     0.089891
     52 H                     0.086973
     53 H                     0.088753
     54 H                     0.102578
     55 H                     0.091244
     56 H                     0.091037
  ----------------------------------------
  Sum of atomic charges =     0.000000

                    Cartesian Multipole Moments
 -----------------------------------------------------------------
    Charge (ESU x 10^10)
                 0.0000
    Dipole Moment (Debye)
         X       0.0688      Y       0.0550      Z      -0.9300
       Tot       0.9342
    Quadrupole Moments (Debye-Ang)
        XX    -158.3373     XY     -21.9242     YY    -160.9524
        XZ      -1.5282     YZ      11.1132     ZZ    -160.5591

 Total job time:  49.16s(wall), 2334.66s(cpu)
        *  Thank you very much for using Q-Chem.  Have a nice day.  *
