 Q-Chem 5.0, Q-Chem, Inc., Pleasanton, CA (2017)
 Q-Chem 5.0.1 for Intel X86 EM64T Linux

User input:
--------------------------------------------------------------
$molecule
0  1
O -0.1774860671 -1.1981964631 0.5195381319
C -1.0582035145 -0.3830187099 0.2853838141
C -2.531469037 -0.5809762604 0.5662651072
C -3.4583999162 0.6242658421 0.3381166092
C -2.8367729125 1.8391677986 -0.3143278499
O -1.5981314954 1.5243757112 -0.7961094179
C -0.5336138889 2.1033196064 -0.0339489285
C 0.8140026399 1.7092390236 -0.6295693142
O 1.8780672248 2.2926115225 0.1387477034
C 2.4752832756 1.4639848506 1.0308583551
C 3.4141862347 0.476588254 0.3795810247
C 3.0854995017 -1.0000941767 0.6435128102
C 1.703546859 -1.2804137389 1.1987761295
O 1.4555960463 -2.0100403983 2.1478428724
O -1.0880150656 -0.5214045899 -1.1229281803
O 1.088797056 -0.1239595381 1.7805878211
O 2.6374325946 1.8180303589 2.1924030167
C 0.117254735 -0.0965715364 2.8348860034
C 3.6433244463 0.4524100686 -1.1649695214
C 4.9834676107 -0.1512669661 -1.5456023424
C 4.7407354286 -1.6195693851 -1.212442578
C 3.2746762526 -1.5665830731 -0.7910366955
O 2.8129655628 -0.5564532433 -1.6387144012
H 4.4115288497 0.7356856951 0.8021897692
H 3.8071698079 -1.4932014816 1.3323021434
H 3.5508174425 1.4448995614 -1.6541163029
H 5.05206978 -0.0492796139 -2.6586675094
H 5.8534707584 0.3348934451 -1.0680647723
H 4.8056484254 -2.2051650058 -2.1613648754
H 5.3998957501 -2.0539564507 -0.4371822606
H 2.7876324944 -2.5623037899 -0.9025942856
O -3.3753388972 2.9247197978 -0.4679127346
C -0.0509038259 -0.4453295831 -2.0144253292
C -3.2314140416 -1.6280169829 -0.3545043531
C -4.498989828 -2.1655590602 0.2868206937
C -5.4150990553 -0.9698923991 0.1298413279
C -4.4974598614 0.0023965442 -0.614453357
O -3.7261391995 -0.8513772363 -1.422149263
H -2.604715156 -0.9300792718 1.6198503582
H -3.8977511403 0.9774411763 1.2973009499
H 0.2221238817 -1.2073222613 -2.7491927746
H -2.5594849737 -2.4698570507 -0.6369285274
H -4.8729429283 -2.9943532062 -0.358046834
H -4.3478048004 -2.5294067865 1.3238324225
H -6.252795762 -1.2625992036 -0.5427951982
H -5.8101256066 -0.551472377 1.0780596125
H -5.0949244313 0.7721791803 -1.1516784593
H 0.7769300544 -0.5166581422 -1.3641697956
H -0.2018749451 0.4987662939 -2.5816268411
H -0.7288448135 0.5839898128 2.618643657
H -0.796764251 0.5000869472 2.6221624865
H -0.3857557546 -1.1052542847 2.9555994363
H 1.3238711629 1.4520671121 -1.564003904
H 0.6909770306 2.3802772847 -1.5104995088
H -0.6048171719 1.9449155298 1.0439241894
H -0.623422397 3.2147788195 -0.1159471988
$end

$rem
JOBTYPE                   OPT
METHOD                    B3LYP
DFT_D                     d3_op
BASIS                     STO-3G
GEOM_OPT_MAX_CYCLES       100
GEOM_OPT_TOL_GRADIENT     300
GEOM_OPT_TOL_DISPLACEMENT 1200
GEOM_OPT_TOL_ENERGY       100
SYMMETRY                  False
THRESH                    12
SCF_CONVERGENCE           8
MAX_SUB_FILE_NUM          128
MEM_STATIC                400
MEM_TOTAL                 4000
$end
--------------------------------------------------------------

   19   -1505.8191265046      6.54E-09 Convergence criterion met
 Total energy in the final basis set = -1505.81912650
   14   -1508.3478822681      7.86E-09 Convergence criterion met
 Total energy in the final basis set = -1508.34788227
   15   -1509.0381157255      6.85E-09 Convergence criterion met
 Total energy in the final basis set = -1509.03811573
   15   -1509.3382039382      4.36E-09 Convergence criterion met
 Total energy in the final basis set = -1509.33820394
   15   -1509.4775248638      8.46E-09 Convergence criterion met
 Total energy in the final basis set = -1509.47752486
   16   -1509.6039694279      3.54E-09 Convergence criterion met
 Total energy in the final basis set = -1509.60396943
   14   -1509.6904385956      8.35E-09 Convergence criterion met
 Total energy in the final basis set = -1509.69043860
   15   -1509.7593412420      4.36E-09 Convergence criterion met
    9   -1510.1455416564      7.50E-09 Convergence criterion met
 Total energy in the final basis set = -1510.14554166
    9   -1510.1455427475      6.67E-09 Convergence criterion met
 Total energy in the final basis set = -1510.14554275
    9   -1510.1455443971      6.71E-09 Convergence criterion met
 Total energy in the final basis set = -1510.14554440
    9   -1510.1455455808      9.71E-09 Convergence criterion met
 Total energy in the final basis set = -1510.14554558
    9   -1510.1455462026      8.29E-09 Convergence criterion met
 Total energy in the final basis set = -1510.14554620
    9   -1510.1455462621      5.79E-09 Convergence criterion met
 Total energy in the final basis set = -1510.14554626

             Standard Nuclear Orientation (Angstroms)
    I     Atom           X                Y                Z
 ----------------------------------------------------------------
    1      O      -0.0836368857    -2.2032207135    -1.3540831624
    2      C      -0.9984758280    -1.3862966036    -1.0997925610
    3      C      -2.1318942415    -1.5618882394    -0.0362329684
    4      C      -2.8057541144    -0.2215082000     0.4764136808
    5      C      -2.1458947106     1.0998424559    -0.0252507202
    6      O      -0.7481017470     1.2304166103     0.4983923574
    7      C      -0.1449698095     2.5417771153     0.0957471390
    8      C       1.3505606784     2.3607758629    -0.3529635222
    9      O       2.2592209011     2.8194378322     0.7173092985
   10      C       3.0332563538     1.8199094381     1.4073818511
   11      C       3.5852675627     0.5136982759     0.6637710986
   12      C       2.7468178360    -0.8270120665     0.8173775267
   13      C       1.3253748863    -0.7152207317     1.4693350141
   14      O       0.5056352182    -1.6555880214     1.5535290766
   15      O      -1.2081639689    -0.1733456337    -1.8166808213
   16      O       1.0483042453     0.6256787193     1.9435286178
   17      O       3.4736972357     2.1320871464     2.5354353597
   18      C      -0.3433221805     0.9179343309     2.2052155972
   19      C       3.7647054286     0.5780526028    -0.9122386206
   20      C       4.8223529239    -0.5058352045    -1.3473306293
   21      C       3.9892379026    -1.8352405986    -1.1999550149
   22      C       2.6040455445    -1.2822503170    -0.6985833927
   23      O       2.4867167095     0.0095466286    -1.4223739878
   24      H       4.5727160860     0.3605141713     1.1343310274
   25      H       3.3188005965    -1.5795769410     1.3900306956
   26      H       3.9300343079     1.5918951044    -1.3247933619
   27      H       5.1363336856    -0.3398670195    -2.3902335731
   28      H       5.7146328399    -0.4890615206    -0.7019941035
   29      H       3.8720776762    -2.3460485954    -2.1690244919
   30      H       4.4349278741    -2.5402551218    -0.4804977822
   31      H       1.7027208396    -1.9010907386    -0.9163521230
   32      O      -2.6545278409     2.0224597743    -0.6822878527
   33      C      -0.1678001514     0.0326857401    -2.8554310296
   34      C      -3.3909703489    -2.2695185592    -0.7124732001
   35      C      -4.3746667071    -2.7470171073     0.4281480970
   36      C      -5.0501852920    -1.3860917558     0.8399066274
   37      C      -4.2811700154    -0.3751490101    -0.0952000773
   38      O      -4.0978109815    -1.1375582524    -1.3506475272
   39      H      -1.7140362846    -2.1533684597     0.7976237558
   40      H      -2.8118827989    -0.1893565212     1.5802258632
   41      H      -0.2100910331    -0.7721232160    -3.6164109541
   42      H      -3.1283597040    -3.0407919369    -1.4626840099
   43      H      -5.1107792786    -3.4622930914     0.0283288033
   44      H      -3.8333390856    -3.2218374748     1.2619929981
   45      H      -6.1259401928    -1.3816569471     0.6027226949
   46      H      -4.9207053184    -1.1497397688     1.9080887837
   47      H      -4.7896581091     0.5880550876    -0.2946181274
   48      H       0.8554841775     0.0700112278    -2.4145717759
   49      H      -0.4127385029     1.0006116229    -3.3291288226
   50      H      -1.7987387140     2.3557712887     2.8235680262
   51      H      -2.3838257558     2.7939599838     2.9383146626
   52      H      -0.8063992778    -0.1315742084     2.1959391413
   53      H       1.5559959058     1.3153501761    -0.6992865230
   54      H       1.5187865339     3.0451714935    -1.2126139214
   55      H      -0.2015457727     3.2198515768     0.9723529001
   56      H      -0.7848091294     2.9273462797    -0.7242229058
 ----------------------------------------------------------------

    8   -1510.1455464316      6.77E-09 Convergence criterion met
 Total energy in the final basis set = -1510.14554643
 Final energy is   -1510.14554643160
 **  OPTIMIZATION CONVERGED  **

                    Orbital Energies (a.u.)
 --------------------------------------------------------------

 Alpha MOs
 -- Occupied --
-19.013 -18.960 -18.935 -18.928 -18.922 -18.914 -18.902 -18.897
-18.892 -18.857 -10.147 -10.122 -10.104 -10.095 -10.084 -10.078
-10.074 -10.073 -10.068 -10.067 -10.062 -10.062 -10.053 -10.047
-10.040 -10.034 -10.032 -10.030 -10.029  -9.931  -1.054  -1.031
 -1.015  -0.998  -0.990  -0.985  -0.982  -0.956  -0.938  -0.923
 -0.781  -0.774  -0.738  -0.731  -0.723  -0.717  -0.710  -0.673
 -0.627  -0.617  -0.598  -0.587  -0.561  -0.554  -0.550  -0.545
 -0.530  -0.517  -0.499  -0.487  -0.484  -0.471  -0.461  -0.451
 -0.444  -0.442  -0.430  -0.425  -0.422  -0.411  -0.405  -0.404
 -0.399  -0.394  -0.387  -0.376  -0.372  -0.371  -0.367  -0.363
 -0.356  -0.350  -0.345  -0.338  -0.332  -0.331  -0.326  -0.323
 -0.320  -0.318  -0.317  -0.315  -0.308  -0.304  -0.290  -0.284
 -0.282  -0.271  -0.257  -0.248  -0.244  -0.234  -0.223  -0.206
 -0.195  -0.185  -0.172  -0.171  -0.168  -0.159  -0.157  -0.135
 -0.089

          Ground-State Mulliken Net Atomic Charges

     Atom                 Charge (a.u.)
  ----------------------------------------
      1 O                    -0.212784
      2 C                     0.218933
      3 C                    -0.080130
      4 C                    -0.078684
      5 C                     0.249627
      6 O                    -0.129012
      7 C                    -0.047123
      8 C                    -0.067078
      9 O                    -0.178498
     10 C                     0.223428
     11 C                    -0.087006
     12 C                    -0.083345
     13 C                     0.207328
     14 O                    -0.207422
     15 O                    -0.167638
     16 O                    -0.185172
     17 O                    -0.206543
     18 C                    -0.067390
     19 C                     0.022586
     20 C                    -0.142669
     21 C                    -0.143042
     22 C                     0.012873
     23 O                    -0.198459
     24 H                     0.088606
     25 H                     0.090582
     26 H                     0.087885
     27 H                     0.080532
     28 H                     0.079540
     29 H                     0.081641
     30 H                     0.078937
     31 H                     0.112523
     32 O                    -0.176047
     33 C                    -0.141622
     34 C                     0.026030
     35 C                    -0.143699
     36 C                    -0.143025
     37 C                     0.026681
     38 O                    -0.186907
     39 H                     0.105706
     40 H                     0.106031
     41 H                     0.089643
     42 H                     0.086424
     43 H                     0.080974
     44 H                     0.078616
     45 H                     0.081506
     46 H                     0.078498
     47 H                     0.093254
     48 H                     0.110758
     49 H                     0.090649
     50 H                     0.023551
     51 H                    -0.061032
     52 H                     0.004981
     53 H                     0.111304
     54 H                     0.078817
     55 H                     0.119867
     56 H                     0.106016
  ----------------------------------------
  Sum of atomic charges =    -0.000000

                    Cartesian Multipole Moments
 -----------------------------------------------------------------
    Charge (ESU x 10^10)
                -0.0000
    Dipole Moment (Debye)
         X       0.1350      Y      -3.1014      Z      -4.1489
       Tot       5.1818
    Quadrupole Moments (Debye-Ang)
        XX    -148.9404     XY      -1.3518     YY    -167.2985
        XZ     -13.3183     YZ     -12.6262     ZZ    -173.0050

 Total job time:  293.73s(wall), 14021.09s(cpu)
        *  Thank you very much for using Q-Chem.  Have a nice day.  *
