 Q-Chem 5.0, Q-Chem, Inc., Pleasanton, CA (2017)
 Q-Chem 5.0.1 for Intel X86 EM64T Linux

User input:
--------------------------------------------------------------
$molecule
0  1
O -3.94934 -3.66094 2.70899
C -3.26408 -4.56952 2.26188
C -3.36658 -6.02376 2.66595
C -3.36795 -7.06811 1.5376
C -3.08802 -6.55426 0.14271
O -2.66202 -7.57959 -0.65268
C -2.31966 -7.15959 -1.97769
C -1.85473 -8.35417 -2.8041
O -2.12614 -8.12222 -4.19529
C -3.26228 -8.69024 -4.67035
C -3.7369 -8.06616 -5.96106
C -3.04664 -6.74603 -6.33397
C -1.76924 -6.43263 -5.58116
O -0.64057 -6.4838 -6.04812
O -2.1943 -4.23515 1.48865
O -1.95493 -5.5849 -4.52987
O -3.79137 -9.68756 -4.19638
C -0.96077 -4.7901 -3.99056
C -3.46641 -8.92161 -7.20776
C -4.45313 -8.54024 -8.30902
C -3.94254 -7.1623 -8.68016
C -2.68858 -7.08565 -7.7994
O -2.2527 -8.42196 -7.71086
H -4.83146 -7.90422 -5.83445
H -3.71689 -5.85943 -6.27244
H -3.50474 -10.01496 -7.00934
H -4.2688 -9.23048 -9.16341
H -5.52667 -8.58709 -8.02573
H -3.66739 -7.17049 -9.75826
H -4.64067 -6.3232 -8.47038
H -1.96293 -6.36358 -8.23484
O -3.63713 -5.55942 -0.31751
C -1.89415 -2.95257 1.08001
C -2.12218 -6.45712 3.46445
C -2.45708 -7.6638 4.33716
C -2.58184 -8.74093 3.28376
C -2.18964 -7.94984 2.02995
O -1.26222 -7.00493 2.49907
H -4.26098 -6.1114 3.32358
H -4.31811 -7.6445 1.48645
H -1.71558 -2.30108 1.96188
H -1.69756 -5.64049 4.08953
H -1.55893 -7.87828 4.95987
H -3.34141 -7.54022 4.99864
H -1.82631 -9.52913 3.49971
H -3.59017 -9.19829 3.18612
H -1.80613 -8.66066 1.2676
H -2.727 -2.5417 0.47032
H -0.97481 -2.975 0.45972
H -1.37851 -4.20434 -3.14597
H -0.58246 -4.08155 -4.758
H -0.12082 -5.41652 -3.62088
H -0.78415 -8.58845 -2.62729
H -2.41055 -9.24019 -2.42438
H -1.54648 -6.36719 -1.97105
H -3.25362 -6.77667 -2.45005
$end

$opt
CONSTRAINT
tors           1           2           3           4    +134.469
tors           3           4           5           6    +158.929
tors           4           5           6           7    -177.416
tors           5           6           7           8    -180.000
tors           6           7           8           9    +152.284
tors           7           8           9          10     -97.853
tors           8           9          10          11    +161.053
tors           9          10          11          12     -12.367
tors          11          12          13          14    +107.375
ENDCONSTRAINT
$end

$rem
JOBTYPE                   OPT
METHOD                    B3LYP
DFT_D                     d3_op
BASIS                     STO-3G
GEOM_OPT_MAX_CYCLES       100
GEOM_OPT_TOL_GRADIENT     300
GEOM_OPT_TOL_DISPLACEMENT 1200
GEOM_OPT_TOL_ENERGY       100
SYMMETRY                  False
THRESH                    12
SCF_CONVERGENCE           8
MAX_SUB_FILE_NUM          128
MEM_STATIC                400
MEM_TOTAL                 4000
$end
--------------------------------------------------------------

   15   -1510.1359373457      6.52E-09 Convergence criterion met
 Total energy in the final basis set = -1510.13593735
   14   -1510.2060365292      7.93E-09 Convergence criterion met
 Total energy in the final basis set = -1510.20603653
   14   -1510.2397890387      7.83E-09 Convergence criterion met
 Total energy in the final basis set = -1510.23978904
   15   -1510.2604754130      2.17E-09 Convergence criterion met
 Total energy in the final basis set = -1510.26047541
   13   -1510.2686007079      5.93E-09 Convergence criterion met
 Total energy in the final basis set = -1510.26860071
    2   -1510.2686007078      7.20E-09 Convergence criterion met
 Total energy in the final basis set = -1510.26860071
   13   -1510.2730399809      3.91E-09 Convergence criterion met
 Total energy in the final basis set = -1510.27303998
   13   -1510.2752223774      2.25E-09 Convergence criterion met
   11   -1510.2789856568      5.33E-09 Convergence criterion met
 Total energy in the final basis set = -1510.27898566
   10   -1510.2790026244      9.73E-09 Convergence criterion met
 Total energy in the final basis set = -1510.27900262
   11   -1510.2790129020      2.88E-09 Convergence criterion met
 Total energy in the final basis set = -1510.27901290
   11   -1510.2790257197      4.75E-09 Convergence criterion met
 Total energy in the final basis set = -1510.27902572
    9   -1510.2790309441      9.21E-09 Convergence criterion met
 Total energy in the final basis set = -1510.27903094
    9   -1510.2790324635      8.98E-09 Convergence criterion met
 Total energy in the final basis set = -1510.27903246

             Standard Nuclear Orientation (Angstroms)
    I     Atom           X                Y                Z
 ----------------------------------------------------------------
    1      O      -4.9493730693    -2.4779475558     1.3008768623
    2      C      -4.6078930323    -1.5265558843     0.5653434070
    3      C      -4.8546987281     0.0009364486     0.8342076135
    4      C      -3.5976850003     0.9260239670     0.5722882224
    5      C      -2.2607299382     0.1248974527     0.4046505203
    6      O      -1.3106490345     0.9350373827    -0.2930816880
    7      C      -0.0688567987     0.1506477368    -0.5044951124
    8      C       0.9544956866     1.0596023850    -1.2698478845
    9      O       2.3322018701     0.6312180537    -0.9247608631
   10      C       2.8650508686     1.4751596361     0.1060135970
   11      C       4.0812999628     0.8051700856     0.8309351877
   12      C       4.3544073298    -0.7349580718     0.5736646761
   13      C       3.2952603115    -1.5487188670    -0.2567391239
   14      O       3.4100688905    -1.9704996765    -1.4265443776
   15      O      -4.0816264410    -1.6845315749    -0.7600625979
   16      O       2.1927860725    -1.8615980661     0.6140797779
   17      O       2.3888722736     2.5958087485     0.3953900310
   18      C       1.2870734255    -2.8369976191    -0.0372833602
   19      C       5.4374006567     1.4316053614     0.2701079967
   20      C       6.6174882347     1.0761956846     1.2595513481
   21      C       6.8798040135    -0.4320188856     0.8952424053
   22      C       5.7515871235    -0.6789746419    -0.1792532465
   23      O       5.7057984903     0.6014255642    -0.9234845464
   24      H       3.9614962317     1.0151213595     1.9091378450
   25      H       4.4536159216    -1.2485302283     1.5472380526
   26      H       5.3593838053     2.5017925746    -0.0043869726
   27      H       7.4980114514     1.7039376818     1.0497870002
   28      H       6.3274040237     1.2156997033     2.3131773086
   29      H       7.8755899080    -0.5697528391     0.4445123418
   30      H       6.7883260534    -1.1043815965     1.7631996483
   31      H       5.9189248096    -1.5226184015    -0.8765348106
   32      O      -2.0102910842    -1.0229804779     0.8365968371
   33      C      -3.8271979325    -3.1157665488    -1.0320537383
   34      C      -5.8572048895     0.5832448274    -0.2579045992
   35      C      -6.3092837071     2.0349000135     0.1770519168
   36      C      -5.0395117037     2.8823699351    -0.2082251970
   37      C      -4.0645971085     1.7459753503    -0.7069772981
   38      O      -4.9714542422     0.8197441617    -1.4209005187
   39      H      -5.2436555491     0.1080001514     1.8615092178
   40      H      -3.4517689232     1.6169363594     1.4242480347
   41      H      -4.7350025880    -3.7331737542    -0.8743544076
   42      H      -6.6819136780    -0.1023600432    -0.5338899389
   43      H      -7.1966837960     2.3496988824    -0.3944235260
   44      H      -6.5448338606     2.0876752833     1.2520492759
   45      H      -5.2586094491     3.5848945299    -1.0281384794
   46      H      -4.6259553406     3.4473416918     0.6421453437
   47      H      -3.2356576915     2.0727430160    -1.3638192791
   48      H      -3.0160992929    -3.5086234943    -0.3847155612
   49      H      -3.5159094921    -3.1754047227    -2.0912687173
   50      H       0.3055921779    -2.7508185889     0.4656907972
   51      H       1.6729745582    -3.8701837917     0.0855907646
   52      H       1.1811764781    -2.6311810098    -1.1207794465
   53      H       0.8393493423     0.9634803936    -2.3674739001
   54      H       0.8197080126     2.1201995648    -0.9633692749
   55      H      -0.2921673787    -0.7689115897    -1.0837078990
   56      H       0.3749119680    -0.1618875059     0.4669717004
 ----------------------------------------------------------------

    9   -1510.2790316274      5.33E-09 Convergence criterion met
 Total energy in the final basis set = -1510.27903163
 Final energy is   -1510.27903162742
 **  OPTIMIZATION CONVERGED  **

                    Orbital Energies (a.u.)
 --------------------------------------------------------------

 Alpha MOs
 -- Occupied --
-18.943 -18.941 -18.926 -18.924 -18.889 -18.889 -18.885 -18.880
-18.870 -18.864 -10.108 -10.106 -10.098 -10.091 -10.076 -10.075
-10.063 -10.061 -10.060 -10.059 -10.059 -10.057 -10.044 -10.040
-10.037 -10.035 -10.022 -10.021 -10.021 -10.020  -1.022  -1.018
 -1.004  -1.001  -0.972  -0.970  -0.946  -0.941  -0.931  -0.926
 -0.766  -0.763  -0.730  -0.723  -0.714  -0.707  -0.698  -0.661
 -0.654  -0.617  -0.599  -0.585  -0.546  -0.545  -0.539  -0.538
 -0.519  -0.512  -0.492  -0.476  -0.464  -0.460  -0.454  -0.440
 -0.435  -0.433  -0.432  -0.413  -0.411  -0.409  -0.406  -0.404
 -0.399  -0.381  -0.374  -0.369  -0.364  -0.359  -0.350  -0.348
 -0.343  -0.342  -0.337  -0.334  -0.330  -0.326  -0.321  -0.313
 -0.311  -0.310  -0.306  -0.303  -0.299  -0.291  -0.286  -0.274
 -0.273  -0.261  -0.250  -0.244  -0.244  -0.236  -0.234  -0.186
 -0.182  -0.172  -0.166  -0.164  -0.160  -0.150  -0.147  -0.144
 -0.142

          Ground-State Mulliken Net Atomic Charges

     Atom                 Charge (a.u.)
  ----------------------------------------
      1 O                    -0.216721
      2 C                     0.212275
      3 C                    -0.079559
      4 C                    -0.078695
      5 C                     0.215777
      6 O                    -0.172300
      7 C                    -0.050503
      8 C                    -0.052690
      9 O                    -0.167397
     10 C                     0.212410
     11 C                    -0.077872
     12 C                    -0.080782
     13 C                     0.217935
     14 O                    -0.214462
     15 O                    -0.169769
     16 O                    -0.178556
     17 O                    -0.211031
     18 C                    -0.133797
     19 C                     0.025893
     20 C                    -0.144304
     21 C                    -0.143695
     22 C                     0.024978
     23 O                    -0.188150
     24 H                     0.088351
     25 H                     0.084242
     26 H                     0.084877
     27 H                     0.078869
     28 H                     0.073966
     29 H                     0.078603
     30 H                     0.073491
     31 H                     0.089962
     32 O                    -0.215020
     33 C                    -0.128042
     34 C                     0.026140
     35 C                    -0.144750
     36 C                    -0.142961
     37 C                     0.025076
     38 O                    -0.185927
     39 H                     0.084869
     40 H                     0.085191
     41 H                     0.088547
     42 H                     0.083043
     43 H                     0.078182
     44 H                     0.074059
     45 H                     0.078206
     46 H                     0.073574
     47 H                     0.089826
     48 H                     0.087790
     49 H                     0.087917
     50 H                     0.094955
     51 H                     0.082745
     52 H                     0.092042
     53 H                     0.093175
     54 H                     0.106339
     55 H                     0.088607
     56 H                     0.095075
  ----------------------------------------
  Sum of atomic charges =     0.000000

                    Cartesian Multipole Moments
 -----------------------------------------------------------------
    Charge (ESU x 10^10)
                 0.0000
    Dipole Moment (Debye)
         X       0.3331      Y       0.7833      Z       1.4929
       Tot       1.7185
    Quadrupole Moments (Debye-Ang)
        XX    -152.0611     XY      -9.6250     YY    -159.2317
        XZ      11.4250     YZ       4.2672     ZZ    -164.3170

 Total job time:  67.78s(wall), 3222.85s(cpu)
        *  Thank you very much for using Q-Chem.  Have a nice day.  *
