 Q-Chem 5.0, Q-Chem, Inc., Pleasanton, CA (2017)
 Q-Chem 5.0.1 for Intel X86 EM64T Linux

User input:
--------------------------------------------------------------
$molecule
0  1
O -4.9493730693 -2.4779475558 1.3008768623
C -4.6078930323 -1.5265558843 0.565343407
C -4.8546987281 0.0009364486 0.8342076135
C -3.5976850003 0.926023967 0.5722882224
C -2.2607299382 0.1248974527 0.4046505203
O -1.3106490345 0.9350373827 -0.293081688
C -0.0688567987 0.1506477368 -0.5044951124
C 0.9544956866 1.059602385 -1.2698478845
O 2.3322018701 0.6312180537 -0.9247608631
C 2.8650508686 1.4751596361 0.106013597
C 4.0812999628 0.8051700856 0.8309351877
C 4.3544073298 -0.7349580718 0.5736646761
C 3.2952603115 -1.548718867 -0.2567391239
O 3.4100688905 -1.9704996765 -1.4265443776
O -4.081626441 -1.6845315749 -0.7600625979
O 2.1927860725 -1.8615980661 0.6140797779
O 2.3888722736 2.5958087485 0.395390031
C 1.2870734255 -2.8369976191 -0.0372833602
C 5.4374006567 1.4316053614 0.2701079967
C 6.6174882347 1.0761956846 1.2595513481
C 6.8798040135 -0.4320188856 0.8952424053
C 5.7515871235 -0.6789746419 -0.1792532465
O 5.7057984903 0.6014255642 -0.9234845464
H 3.9614962317 1.0151213595 1.909137845
H 4.4536159216 -1.2485302283 1.5472380526
H 5.3593838053 2.5017925746 -0.0043869726
H 7.4980114514 1.7039376818 1.0497870002
H 6.3274040237 1.2156997033 2.3131773086
H 7.875589908 -0.5697528391 0.4445123418
H 6.7883260534 -1.1043815965 1.7631996483
H 5.9189248096 -1.5226184015 -0.8765348106
O -2.0102910842 -1.0229804779 0.8365968371
C -3.8271979325 -3.1157665488 -1.0320537383
C -5.8572048895 0.5832448274 -0.2579045992
C -6.3092837071 2.0349000135 0.1770519168
C -5.0395117037 2.8823699351 -0.208225197
C -4.0645971085 1.7459753503 -0.7069772981
O -4.9714542422 0.8197441617 -1.4209005187
H -5.2436555491 0.1080001514 1.8615092178
H -3.4517689232 1.6169363594 1.4242480347
H -4.735002588 -3.7331737542 -0.8743544076
H -6.681913678 -0.1023600432 -0.5338899389
H -7.196683796 2.3496988824 -0.394423526
H -6.5448338606 2.0876752833 1.2520492759
H -5.2586094491 3.5848945299 -1.0281384794
H -4.6259553406 3.4473416918 0.6421453437
H -3.2356576915 2.072743016 -1.3638192791
H -3.0160992929 -3.5086234943 -0.3847155612
H -3.5159094921 -3.1754047227 -2.0912687173
H 0.3055921779 -2.7508185889 0.4656907972
H 1.6729745582 -3.8701837917 0.0855907646
H 1.1811764781 -2.6311810098 -1.1207794465
H 0.8393493423 0.9634803936 -2.3674739001
H 0.8197080126 2.1201995648 -0.9633692749
H -0.2921673787 -0.7689115897 -1.083707899
H 0.374911968 -0.1618875059 0.4669717004
$end

$rem
JOBTYPE                   OPT
METHOD                    B3LYP
DFT_D                     d3_op
BASIS                     STO-3G
GEOM_OPT_MAX_CYCLES       100
GEOM_OPT_TOL_GRADIENT     300
GEOM_OPT_TOL_DISPLACEMENT 1200
GEOM_OPT_TOL_ENERGY       100
SYMMETRY                  False
THRESH                    12
SCF_CONVERGENCE           8
MAX_SUB_FILE_NUM          128
MEM_STATIC                400
MEM_TOTAL                 4000
$end
--------------------------------------------------------------

   16   -1510.2790429425      5.65E-09 Convergence criterion met
 Total energy in the final basis set = -1510.27904294
   14   -1510.2804375301      2.25E-09 Convergence criterion met
 Total energy in the final basis set = -1510.28043753
   13   -1510.2818434822      4.38E-09 Convergence criterion met
 Total energy in the final basis set = -1510.28184348
   13   -1510.2829800499      9.30E-09 Convergence criterion met
 Total energy in the final basis set = -1510.28298005
   13   -1510.2839101059      4.12E-09 Convergence criterion met
 Total energy in the final basis set = -1510.28391011
   13   -1510.2846418783      6.36E-09 Convergence criterion met
 Total energy in the final basis set = -1510.28464188
   13   -1510.2852870122      4.95E-09 Convergence criterion met
 Total energy in the final basis set = -1510.28528701
   13   -1510.2858361367      2.99E-09 Convergence criterion met
   12   -1510.2904868420      4.42E-09 Convergence criterion met
 Total energy in the final basis set = -1510.29048684
   11   -1510.2904982268      8.33E-09 Convergence criterion met
 Total energy in the final basis set = -1510.29049823
   10   -1510.2904984475      6.26E-09 Convergence criterion met
 Total energy in the final basis set = -1510.29049845
   10   -1510.2905015569      5.02E-09 Convergence criterion met
 Total energy in the final basis set = -1510.29050156
    9   -1510.2904992847      9.70E-09 Convergence criterion met
 Total energy in the final basis set = -1510.29049928
   10   -1510.2905013279      2.26E-09 Convergence criterion met
 Total energy in the final basis set = -1510.29050133

             Standard Nuclear Orientation (Angstroms)
    I     Atom           X                Y                Z
 ----------------------------------------------------------------
    1      O      -4.0403737206    -1.9485137667     1.9338577431
    2      C      -4.0617500489    -1.4200206056     0.8008558990
    3      C      -4.6228322254     0.0101022618     0.4502032585
    4      C      -3.5226076385     1.1476930597     0.3855525231
    5      C      -2.0715172958     0.6207473496     0.6331494230
    6      O      -1.1674723086     1.7192332021     0.6003225805
    7      C       0.2127926567     1.2133205231     0.8073566964
    8      C       1.2078978417     2.4235151775     0.8251086009
    9      O       2.5749403657     1.9281585098     0.5169030614
   10      C       3.0609500310     1.1023088675     1.5820946503
   11      C       4.3535361451     0.3605303965     1.1015766784
   12      C       4.0308332933    -0.9366608829     0.2280165782
   13      C       2.5003934335    -1.1866073078    -0.0161617603
   14      O       1.7692992540    -0.6424579444    -0.8777752679
   15      O      -3.6946173218    -2.0910030865    -0.4120808570
   16      O       2.0430066885    -2.1625073690     0.9163793489
   17      O       2.5000124918     0.9820116662     2.6939460630
   18      C       0.6192101157    -2.5102988272     0.6642291587
   19      C       5.2159404812     1.2029575285     0.0690664737
   20      C       6.6470666224     0.5406568673    -0.0336778554
   21      C       6.3306838179    -0.7345679723    -0.8999418017
   22      C       4.7762776364    -0.5709480165    -1.1260706211
   23      O       4.5938982407     0.8933130712    -1.2381277148
   24      H       4.9339884121     0.0823020519     1.9989047460
   25      H       4.4517467060    -1.8382749371     0.7072015810
   26      H       5.2105815172     2.2947437979     0.2510928555
   27      H       7.3470548075     1.2163404565    -0.5503046521
   28      H       7.0616238055     0.2918811073     0.9562785770
   29      H       6.8631689677    -0.7094404871    -1.8639805720
   30      H       6.5807225972    -1.6749154216    -0.3831771916
   31      H       4.3686585975    -1.0789278387    -2.0213838045
   32      O      -1.7259291553    -0.5696334308     0.8298329998
   33      C      -3.1335451144    -3.4217532310    -0.0949753185
   34      C      -5.2233348974     0.0978629117    -1.0177526455
   35      C      -6.1250298086     1.3917432907    -1.1155468695
   36      C      -5.0316313456     2.5221580965    -1.1736088254
   37      C      -3.7064768521     1.6654938457    -1.1083706939
   38      O      -4.0467460532     0.4347603339    -1.8540499182
   39      H      -5.3807958287     0.2560346729     1.2149698621
   40      H      -3.7256884460     1.9550602799     1.1121760960
   41      H      -3.8689381402    -4.0639536687     0.4321468138
   42      H      -5.6953695681    -0.8368730421    -1.3754013763
   43      H      -6.7296602864     1.3682517711    -2.0360146810
   44      H      -6.8004416025     1.4959622120    -0.2514435197
   45      H      -5.0797162773     3.0831430935    -2.1204808855
   46      H      -5.1083306272     3.2342706789    -0.3364896959
   47      H      -2.8061515341     2.1490769052    -1.5349080280
   48      H      -2.2251185680    -3.3361918517     0.5350308867
   49      H      -2.8693617301    -3.8813104481    -1.0652008267
   50      H      -0.0813266243    -1.6546565285     0.8086747653
   51      H       0.3805666828    -3.3068809311     1.3922921539
   52      H       0.4872391211    -2.9026861484    -0.3643123421
   53      H       0.9619856945     3.1368918278     0.0133374389
   54      H       1.1786441565     2.9490138241     1.8034013480
   55      H       0.5183217478     0.5203244785    -0.0151416802
   56      H       0.2824880463     0.6617128107     1.7684815515
 ----------------------------------------------------------------

    9   -1510.2905011419      7.42E-09 Convergence criterion met
 Total energy in the final basis set = -1510.29050114
 Final energy is   -1510.29050114187
 **  OPTIMIZATION CONVERGED  **

                    Orbital Energies (a.u.)
 --------------------------------------------------------------

 Alpha MOs
 -- Occupied --
-18.945 -18.937 -18.936 -18.919 -18.890 -18.889 -18.887 -18.878
-18.877 -18.856 -10.111 -10.102 -10.101 -10.088 -10.074 -10.061
-10.061 -10.061 -10.061 -10.057 -10.053 -10.048 -10.041 -10.041
-10.039 -10.032 -10.022 -10.020 -10.020 -10.018  -1.023  -1.015
 -1.010  -0.996  -0.970  -0.969  -0.946  -0.939  -0.935  -0.921
 -0.765  -0.762  -0.729  -0.722  -0.714  -0.707  -0.695  -0.658
 -0.651  -0.616  -0.597  -0.581  -0.547  -0.545  -0.538  -0.536
 -0.517  -0.511  -0.482  -0.477  -0.464  -0.460  -0.451  -0.442
 -0.435  -0.433  -0.429  -0.415  -0.407  -0.404  -0.402  -0.398
 -0.391  -0.385  -0.370  -0.365  -0.363  -0.360  -0.353  -0.348
 -0.338  -0.337  -0.333  -0.331  -0.330  -0.327  -0.325  -0.315
 -0.309  -0.307  -0.306  -0.301  -0.292  -0.283  -0.281  -0.279
 -0.274  -0.264  -0.250  -0.248  -0.241  -0.235  -0.232  -0.191
 -0.178  -0.175  -0.162  -0.160  -0.159  -0.150  -0.144  -0.144
 -0.137

          Ground-State Mulliken Net Atomic Charges

     Atom                 Charge (a.u.)
  ----------------------------------------
      1 O                    -0.222369
      2 C                     0.213808
      3 C                    -0.081565
      4 C                    -0.078054
      5 C                     0.220748
      6 O                    -0.169860
      7 C                    -0.065945
      8 C                    -0.047527
      9 O                    -0.163225
     10 C                     0.203382
     11 C                    -0.078408
     12 C                    -0.078457
     13 C                     0.207605
     14 O                    -0.214533
     15 O                    -0.169340
     16 O                    -0.167390
     17 O                    -0.213600
     18 C                    -0.143477
     19 C                     0.026638
     20 C                    -0.144088
     21 C                    -0.144021
     22 C                     0.026300
     23 O                    -0.182714
     24 H                     0.086075
     25 H                     0.087206
     26 H                     0.085981
     27 H                     0.078241
     28 H                     0.073615
     29 H                     0.078519
     30 H                     0.073774
     31 H                     0.085904
     32 O                    -0.209301
     33 C                    -0.127049
     34 C                     0.026398
     35 C                    -0.144475
     36 C                    -0.143663
     37 C                     0.025569
     38 O                    -0.186490
     39 H                     0.082898
     40 H                     0.087302
     41 H                     0.085047
     42 H                     0.087580
     43 H                     0.077805
     44 H                     0.073400
     45 H                     0.078331
     46 H                     0.073498
     47 H                     0.086555
     48 H                     0.089405
     49 H                     0.087145
     50 H                     0.110953
     51 H                     0.086680
     52 H                     0.083496
     53 H                     0.095685
     54 H                     0.090363
     55 H                     0.108453
     56 H                     0.091194
  ----------------------------------------
  Sum of atomic charges =     0.000000

                    Cartesian Multipole Moments
 -----------------------------------------------------------------
    Charge (ESU x 10^10)
                 0.0000
    Dipole Moment (Debye)
         X       0.8014      Y       0.6276      Z      -0.0303
       Tot       1.0184
    Quadrupole Moments (Debye-Ang)
        XX    -136.7251     XY      -9.4403     YY    -151.0643
        XZ       3.7633     YZ       5.5693     ZZ    -172.0076

 Total job time:  127.32s(wall), 6068.97s(cpu)
        *  Thank you very much for using Q-Chem.  Have a nice day.  *
