 Q-Chem 5.0, Q-Chem, Inc., Pleasanton, CA (2017)
 Q-Chem 5.0.1 for Intel X86 EM64T Linux

User input:
--------------------------------------------------------------
$molecule
0  1
O -3.94934 -3.66094 2.70899
C -3.26408 -4.56952 2.26188
C -3.36658 -6.02376 2.66595
C -4.77858 -6.61031 2.82736
C -5.92878 -5.72831 2.39468
O -7.03274 -6.49351 2.14736
C -8.15023 -5.73373 1.67492
C -7.8533 -4.24143 1.77985
O -8.43271 -3.54748 0.66379
C -9.78636 -3.58692 0.59161
C -10.42272 -2.22401 0.72639
C -11.25152 -2.01997 2.003
C -11.03681 -3.04254 3.1007
O -11.80641 -3.26271 4.02471
O -2.43932 -4.27924 1.21932
O -9.78058 -3.3927 3.43238
O -10.43707 -4.61905 0.51314
C -9.45255 -4.11159 4.58423
C -9.45048 -1.02281 0.8395
C -10.16094 0.26275 0.41396
C -11.09805 0.47012 1.58462
C -10.66214 -0.68401 2.49148
O -9.28872 -0.83031 2.22174
H -11.03254 -2.08431 -0.19418
H -12.34575 -1.96353 1.81129
H -8.51865 -1.13908 0.24505
H -9.40076 1.07681 0.42208
H -10.64768 0.22807 -0.58436
H -10.85757 1.44795 2.05826
H -12.18175 0.41966 1.34262
H -10.92943 -0.4683 3.54994
O -5.99118 -4.84012 3.24045
C -2.27279 -3.02064 0.67982
C -2.73041 -7.0013 1.66088
C -2.39735 -8.32494 2.35018
C -3.77803 -8.92031 2.48905
C -4.62541 -7.81601 1.85339
O -3.80371 -7.32999 0.82016
H -2.8361 -6.07055 3.64286
H -4.99748 -6.99966 3.84973
H -1.88302 -2.32248 1.45117
H -1.81623 -6.61012 1.16549
H -1.80903 -8.95707 1.64732
H -1.8343 -8.20105 3.30037
H -3.83291 -9.82675 1.84455
H -4.08644 -9.18083 3.52438
H -5.58781 -8.26289 1.52516
H -3.23978 -2.64262 0.28428
H -1.54312 -3.07605 -0.15382
H -8.36025 -4.27358 4.66292
H -9.95119 -5.10468 4.56855
H -9.766 -3.55108 5.49107
H -7.78482 -3.64183 2.68672
H -6.85803 -3.99254 1.35363
H -9.06331 -5.98038 2.25475
H -8.29873 -6.03322 0.61473
$end

$opt
CONSTRAINT
tors           1           2           3           4     +42.590
tors           3           4           5           6    +158.929
tors           4           5           6           7    -177.416
tors           5           6           7           8      -8.502
tors           6           7           8           9    +143.600
tors           7           8           9          10     +63.935
tors           8           9          10          11    +116.357
tors           9          10          11          12    -113.003
tors          11          12          13          14    -160.539
ENDCONSTRAINT
$end

$rem
JOBTYPE                   OPT
METHOD                    B3LYP
DFT_D                     d3_op
BASIS                     STO-3G
GEOM_OPT_MAX_CYCLES       100
GEOM_OPT_TOL_GRADIENT     300
GEOM_OPT_TOL_DISPLACEMENT 1200
GEOM_OPT_TOL_ENERGY       100
SYMMETRY                  False
THRESH                    12
SCF_CONVERGENCE           8
MAX_SUB_FILE_NUM          128
MEM_STATIC                400
MEM_TOTAL                 4000
$end
--------------------------------------------------------------

   16   -1510.0127291208      7.19E-09 Convergence criterion met
 Total energy in the final basis set = -1510.01272912
   15   -1510.1016123884      2.79E-09 Convergence criterion met
 Total energy in the final basis set = -1510.10161239
   15   -1510.1539811113      1.78E-09 Convergence criterion met
 Total energy in the final basis set = -1510.15398111
   15   -1510.1890592839      2.37E-09 Convergence criterion met
 Total energy in the final basis set = -1510.18905928
   14   -1510.2086402690      4.28E-09 Convergence criterion met
 Total energy in the final basis set = -1510.20864027
   14   -1510.2202992182      5.33E-09 Convergence criterion met
 Total energy in the final basis set = -1510.22029922
   14   -1510.2295014212      3.66E-09 Convergence criterion met
 Total energy in the final basis set = -1510.22950142
   13   -1510.2354870576      4.32E-09 Convergence criterion met
   12   -1510.2470610807      3.64E-09 Convergence criterion met
 Total energy in the final basis set = -1510.24706108
   11   -1510.2470911099      5.99E-09 Convergence criterion met
 Total energy in the final basis set = -1510.24709111
   11   -1510.2471091714      2.33E-09 Convergence criterion met
 Total energy in the final basis set = -1510.24710917
   11   -1510.2471214856      2.75E-09 Convergence criterion met
 Total energy in the final basis set = -1510.24712149
    9   -1510.2471240121      6.94E-09 Convergence criterion met
 Total energy in the final basis set = -1510.24712401
    9   -1510.2471255845      9.01E-09 Convergence criterion met
 Total energy in the final basis set = -1510.24712558

             Standard Nuclear Orientation (Angstroms)
    I     Atom           X                Y                Z
 ----------------------------------------------------------------
    1      O      -3.3853723663    -2.0272417760     2.1317195845
    2      C      -4.1471686034    -1.7972080413     1.1686833872
    3      C      -4.6861125418    -0.3982065683     0.6964172634
    4      C      -3.6391295521     0.7865628908     0.6804025046
    5      C      -2.1578811258     0.3152378437     0.3622119410
    6      O      -1.4690727675     1.4702945065    -0.0996964516
    7      C      -0.0481596563     1.3532619011    -0.5438404693
    8      C       0.7439447555    -0.0024267100    -0.3106015236
    9      O       1.6632189922    -0.3087628494    -1.4176924787
   10      C       2.7215409130     0.6791647099    -1.5516087022
   11      C       4.1485948863     0.0409041153    -1.2893655194
   12      C       4.9371139735     0.5219775670     0.0058704855
   13      C       4.3011834848     1.5658051554     0.9837675112
   14      O       4.9450107608     2.2538002959     1.8072012931
   15      O      -4.6973794252    -2.8176514325     0.3257807686
   16      O       2.8716563667     1.5250097642     0.9438924252
   17      O       2.5256557573     1.8561699822    -1.9215958967
   18      C       2.3100891081     2.4511048257     1.9560953812
   19      C       4.0506482653    -1.5199316271    -1.0195644183
   20      C       5.4682795922    -2.1716837028    -1.2571949285
   21      C       6.2374513670    -1.7048547484     0.0334201769
   22      C       5.1157846324    -0.8728580487     0.7691492293
   23      O       3.8693655877    -1.5977895867     0.4495863396
   24      H       4.7680862510     0.2543924486    -2.1805995800
   25      H       5.9236925258     0.9290093944    -0.2791867722
   26      H       3.2003791458    -2.0049125195    -1.5348909623
   27      H       5.3850640363    -3.2691381583    -1.3032175966
   28      H       5.9389001400    -1.8147278068    -2.1871281831
   29      H       6.5443385659    -2.5622263086     0.6534309503
   30      H       7.1268930864    -1.0958806601    -0.1936159142
   31      H       5.2448504731    -0.7764917542     1.8649446685
   32      O      -1.7416448431    -0.8660372707     0.3775119381
   33      C      -4.2027083470    -4.1453318959     0.7552626247
   34      C      -5.3170721603    -0.2890422310    -0.7615983908
   35      C      -6.4692216593     0.7833538311    -0.6736032235
   36      C      -5.6229278276     2.0863775592    -0.4163884589
   37      C      -4.1484073105     1.5505494013    -0.6170425657
   38      O      -4.2918366945     0.4173854084    -1.5654899052
   39      H      -5.4700491241    -0.1372874743     1.4337412030
   40      H      -3.6661617132     1.3965216592     1.6010824022
   41      H      -4.5340738351    -4.3929018131     1.7846849797
   42      H      -5.5818058124    -1.2604384804    -1.2208345042
   43      H      -7.0113661768     0.8404004945    -1.6313296041
   44      H      -7.1896570577     0.5706388986     0.1322210106
   45      H      -5.8527269342     2.8758662840    -1.1489319663
   46      H      -5.7742174747     2.4926276359     0.5967437023
   47      H      -3.4209288645     2.2898095367    -1.0028231929
   48      H      -3.0953589500    -4.1968275347     0.7209608276
   49      H      -4.6309683499    -4.8754434465     0.0439499680
   50      H       1.2747739393     2.1172080757     2.1516036342
   51      H       2.2970342904     3.4926603125     1.5743146900
   52      H       2.9019443002     2.4249794195     2.8923230361
   53      H       1.3044310689     0.0516312621     0.6461571034
   54      H      -0.0022722148    -0.8237264579    -0.2584654426
   55      H       0.4827176813     2.2022339535    -0.0672465878
   56      H      -0.0599168653     1.5464427633    -1.6395903503
 ----------------------------------------------------------------

    9   -1510.2471257589      8.73E-09 Convergence criterion met
 Total energy in the final basis set = -1510.24712576
 Final energy is   -1510.24712575891
 **  OPTIMIZATION CONVERGED  **

                    Orbital Energies (a.u.)
 --------------------------------------------------------------

 Alpha MOs
 -- Occupied --
-18.945 -18.935 -18.927 -18.900 -18.890 -18.889 -18.882 -18.882
-18.878 -18.865 -10.107 -10.106 -10.104 -10.093 -10.070 -10.063
-10.063 -10.058 -10.056 -10.056 -10.054 -10.049 -10.042 -10.037
-10.035 -10.032 -10.021 -10.019 -10.019 -10.017  -1.019  -1.012
 -1.002  -1.000  -0.972  -0.967  -0.942  -0.942  -0.931  -0.927
 -0.763  -0.760  -0.724  -0.721  -0.710  -0.704  -0.687  -0.668
 -0.655  -0.614  -0.598  -0.582  -0.544  -0.541  -0.537  -0.535
 -0.515  -0.510  -0.489  -0.472  -0.463  -0.459  -0.443  -0.435
 -0.434  -0.432  -0.426  -0.418  -0.414  -0.405  -0.403  -0.396
 -0.385  -0.378  -0.374  -0.370  -0.367  -0.358  -0.355  -0.348
 -0.343  -0.339  -0.331  -0.328  -0.327  -0.321  -0.316  -0.311
 -0.309  -0.308  -0.307  -0.303  -0.298  -0.293  -0.280  -0.273
 -0.273  -0.264  -0.252  -0.245  -0.236  -0.231  -0.225  -0.185
 -0.176  -0.172  -0.164  -0.159  -0.151  -0.149  -0.145  -0.140
 -0.137

          Ground-State Mulliken Net Atomic Charges

     Atom                 Charge (a.u.)
  ----------------------------------------
      1 O                    -0.212262
      2 C                     0.213873
      3 C                    -0.081663
      4 C                    -0.074304
      5 C                     0.220298
      6 O                    -0.175282
      7 C                    -0.057677
      8 C                    -0.064517
      9 O                    -0.195090
     10 C                     0.222604
     11 C                    -0.081739
     12 C                    -0.079855
     13 C                     0.209840
     14 O                    -0.213871
     15 O                    -0.172395
     16 O                    -0.171729
     17 O                    -0.194692
     18 C                    -0.130657
     19 C                     0.023879
     20 C                    -0.144903
     21 C                    -0.143572
     22 C                     0.025624
     23 O                    -0.189833
     24 H                     0.082481
     25 H                     0.087289
     26 H                     0.095852
     27 H                     0.078407
     28 H                     0.073476
     29 H                     0.078671
     30 H                     0.074451
     31 H                     0.083105
     32 O                    -0.207140
     33 C                    -0.127880
     34 C                     0.022098
     35 C                    -0.141665
     36 C                    -0.146265
     37 C                     0.022492
     38 O                    -0.193652
     39 H                     0.080942
     40 H                     0.084956
     41 H                     0.086443
     42 H                     0.093299
     43 H                     0.077397
     44 H                     0.072628
     45 H                     0.077937
     46 H                     0.072626
     47 H                     0.090915
     48 H                     0.093273
     49 H                     0.088640
     50 H                     0.091348
     51 H                     0.089267
     52 H                     0.098518
     53 H                     0.089023
     54 H                     0.119157
     55 H                     0.086016
     56 H                     0.093816
  ----------------------------------------
  Sum of atomic charges =    -0.000000

                    Cartesian Multipole Moments
 -----------------------------------------------------------------
    Charge (ESU x 10^10)
                 0.0000
    Dipole Moment (Debye)
         X      -0.4283      Y       0.2276      Z       0.5216
       Tot       0.7123
    Quadrupole Moments (Debye-Ang)
        XX    -138.8403     XY      -7.9769     YY    -156.8823
        XZ      -8.1270     YZ       4.7158     ZZ    -164.1067

 Total job time:  82.82s(wall), 3944.00s(cpu)
        *  Thank you very much for using Q-Chem.  Have a nice day.  *
