 Q-Chem 5.0, Q-Chem, Inc., Pleasanton, CA (2017)
 Q-Chem 5.0.1 for Intel X86 EM64T Linux

User input:
--------------------------------------------------------------
$molecule
0  1
O -3.3853723663 -2.027241776 2.1317195845
C -4.1471686034 -1.7972080413 1.1686833872
C -4.6861125418 -0.3982065683 0.6964172634
C -3.6391295521 0.7865628908 0.6804025046
C -2.1578811258 0.3152378437 0.362211941
O -1.4690727675 1.4702945065 -0.0996964516
C -0.0481596563 1.3532619011 -0.5438404693
C 0.7439447555 -0.00242671 -0.3106015236
O 1.6632189922 -0.3087628494 -1.4176924787
C 2.721540913 0.6791647099 -1.5516087022
C 4.1485948863 0.0409041153 -1.2893655194
C 4.9371139735 0.521977567 0.0058704855
C 4.3011834848 1.5658051554 0.9837675112
O 4.9450107608 2.2538002959 1.8072012931
O -4.6973794252 -2.8176514325 0.3257807686
O 2.8716563667 1.5250097642 0.9438924252
O 2.5256557573 1.8561699822 -1.9215958967
C 2.3100891081 2.4511048257 1.9560953812
C 4.0506482653 -1.5199316271 -1.0195644183
C 5.4682795922 -2.1716837028 -1.2571949285
C 6.237451367 -1.7048547484 0.0334201769
C 5.1157846324 -0.8728580487 0.7691492293
O 3.8693655877 -1.5977895867 0.4495863396
H 4.768086251 0.2543924486 -2.18059958
H 5.9236925258 0.9290093944 -0.2791867722
H 3.2003791458 -2.0049125195 -1.5348909623
H 5.3850640363 -3.2691381583 -1.3032175966
H 5.93890014 -1.8147278068 -2.1871281831
H 6.5443385659 -2.5622263086 0.6534309503
H 7.1268930864 -1.0958806601 -0.1936159142
H 5.2448504731 -0.7764917542 1.8649446685
O -1.7416448431 -0.8660372707 0.3775119381
C -4.202708347 -4.1453318959 0.7552626247
C -5.3170721603 -0.289042231 -0.7615983908
C -6.4692216593 0.7833538311 -0.6736032235
C -5.6229278276 2.0863775592 -0.4163884589
C -4.1484073105 1.5505494013 -0.6170425657
O -4.2918366945 0.4173854084 -1.5654899052
H -5.4700491241 -0.1372874743 1.433741203
H -3.6661617132 1.3965216592 1.6010824022
H -4.5340738351 -4.3929018131 1.7846849797
H -5.5818058124 -1.2604384804 -1.2208345042
H -7.0113661768 0.8404004945 -1.6313296041
H -7.1896570577 0.5706388986 0.1322210106
H -5.8527269342 2.875866284 -1.1489319663
H -5.7742174747 2.4926276359 0.5967437023
H -3.4209288645 2.2898095367 -1.0028231929
H -3.09535895 -4.1968275347 0.7209608276
H -4.6309683499 -4.8754434465 0.043949968
H 1.2747739393 2.1172080757 2.1516036342
H 2.2970342904 3.4926603125 1.57431469
H 2.9019443002 2.4249794195 2.8923230361
H 1.3044310689 0.0516312621 0.6461571034
H -0.0022722148 -0.8237264579 -0.2584654426
H 0.4827176813 2.2022339535 -0.0672465878
H -0.0599168653 1.5464427633 -1.6395903503
$end

$rem
JOBTYPE                   OPT
METHOD                    B3LYP
DFT_D                     d3_op
BASIS                     STO-3G
GEOM_OPT_MAX_CYCLES       100
GEOM_OPT_TOL_GRADIENT     300
GEOM_OPT_TOL_DISPLACEMENT 1200
GEOM_OPT_TOL_ENERGY       100
SYMMETRY                  False
THRESH                    12
SCF_CONVERGENCE           8
MAX_SUB_FILE_NUM          128
MEM_STATIC                400
MEM_TOTAL                 4000
$end
--------------------------------------------------------------

   16   -1510.2471535389      4.75E-09 Convergence criterion met
 Total energy in the final basis set = -1510.24715354
   13   -1510.2510211920      9.48E-09 Convergence criterion met
 Total energy in the final basis set = -1510.25102119
   13   -1510.2553921736      6.19E-09 Convergence criterion met
 Total energy in the final basis set = -1510.25539217
   13   -1510.2594896885      5.97E-09 Convergence criterion met
 Total energy in the final basis set = -1510.25948969
   13   -1510.2636414176      7.04E-09 Convergence criterion met
 Total energy in the final basis set = -1510.26364142
   13   -1510.2675485039      7.46E-09 Convergence criterion met
 Total energy in the final basis set = -1510.26754850
   14   -1510.2705604436      5.25E-09 Convergence criterion met
 Total energy in the final basis set = -1510.27056044
   13   -1510.2729538110      4.06E-09 Convergence criterion met
   12   -1510.2856323296      5.54E-09 Convergence criterion met
 Total energy in the final basis set = -1510.28563233
   12   -1510.2856712670      1.86E-09 Convergence criterion met
 Total energy in the final basis set = -1510.28567127
   11   -1510.2856654292      4.88E-09 Convergence criterion met
 Total energy in the final basis set = -1510.28566543
   10   -1510.2856645827      9.06E-09 Convergence criterion met
 Total energy in the final basis set = -1510.28566458
    9   -1510.2856668817      4.35E-09 Convergence criterion met
 Total energy in the final basis set = -1510.28566688
    9   -1510.2856654890      3.61E-09 Convergence criterion met
 Total energy in the final basis set = -1510.28566549

             Standard Nuclear Orientation (Angstroms)
    I     Atom           X                Y                Z
 ----------------------------------------------------------------
    1      O      -3.6421806197    -1.1175217405     2.4665154941
    2      C      -4.2140100469    -0.9972521755     1.3608743847
    3      C      -4.8033245723     0.3334423585     0.7583423495
    4      C      -3.8099958226     1.1060156915    -0.2048769941
    5      C      -2.4579955452     0.3529517902    -0.4340256208
    6      O      -1.6194064285     1.1717241940    -1.2531768580
    7      C      -0.3278022678     0.4890910487    -1.5222824432
    8      C       0.6189461182     0.5267899356    -0.2681268425
    9      O       1.9484009295    -0.0047836609    -0.6475355570
   10      C       2.9576342140     0.9922703232    -0.4381679698
   11      C       4.3753186140     0.3971975800    -0.7674320581
   12      C       5.2944775302     0.2747122024     0.5257150763
   13      C       4.5867343158     0.7270884359     1.8465026648
   14      O       5.0314452641     1.4933780771     2.7273486474
   15      O      -4.5409924330    -2.0914850281     0.4953302263
   16      O       3.3010924948     0.0952220219     1.8991491929
   17      O       2.7162689471     2.1673252953    -0.0799098668
   18      C       2.5382788686     0.5697360026     3.0753661416
   19      C       4.3397588599    -1.1100494763    -1.2565706839
   20      C       5.7382866369    -1.4568713377    -1.9040933907
   21      C       6.6438472068    -1.5847046296    -0.6238830058
   22      C       5.5956176636    -1.2890419327     0.5204099653
   23      O       4.3412243625    -1.8822019726     0.0079516504
   24      H       4.8504864109     1.0586892813    -1.5149845182
   25      H       6.2211680492     0.8660555466     0.4226019768
   26      H       3.4538558882    -1.3691358550    -1.8664461946
   27      H       5.6808556067    -2.4095416211    -2.4540909492
   28      H       6.0833439611    -0.6707102689    -2.5946846765
   29      H       7.0512483874    -2.6026865380    -0.5173496573
   30      H       7.4797750446    -0.8670576534    -0.6187150089
   31      H       5.8484576245    -1.7112091692     1.5123580688
   32      O      -2.1322504519    -0.7769329820    -0.0047908738
   33      C      -3.9300090297    -3.3352437538     1.0124541008
   34      C      -6.0328028360     0.0931087510    -0.2182070540
   35      C      -6.7984389671     1.4649702511    -0.3907930452
   36      C      -5.8132059517     2.2463823425    -1.3370309439
   37      C      -4.6730840780     1.1727547912    -1.5412936727
   38      O      -5.3976041950    -0.1162257234    -1.5402867293
   39      H      -5.0862843065     0.9776254621     1.6097486517
   40      H      -3.5821929514     2.1210485678     0.1678240016
   41      H      -4.2676199333    -3.5615723230     2.0446944296
   42      H      -6.6668050244    -0.7745932926     0.0460682057
   43      H      -7.7765324041     1.3034957495    -0.8713795779
   44      H      -6.9573242447     1.9744450874     0.5730036912
   45      H      -6.2864053021     2.4925794715    -2.3008988878
   46      H      -5.4311401292     3.1745625462    -0.8829245305
   47      H      -4.0721587328     1.2876789191    -2.4644032672
   48      H      -2.8228997740    -3.2664340077     1.0089585581
   49      H      -4.2534999112    -4.1424340020     0.3297656269
   50      H       1.5925331104    -0.0027078236     3.0758424804
   51      H       2.3157552984     1.6539623599     2.9983830771
   52      H       3.0873059471     0.3859665879     4.0209714245
   53      H       0.7434355231     1.5698879779     0.0967470890
   54      H       0.2029760585    -0.1162218763     0.5348140767
   55      H       0.1328290760     1.0499621150    -2.3603729264
   56      H      -0.4969501245    -0.5642097556    -1.8323940132
 ----------------------------------------------------------------

    9   -1510.2856670300      3.65E-09 Convergence criterion met
 Total energy in the final basis set = -1510.28566703
 Final energy is   -1510.28566703001
 **  OPTIMIZATION CONVERGED  **

                    Orbital Energies (a.u.)
 --------------------------------------------------------------

 Alpha MOs
 -- Occupied --
-18.943 -18.936 -18.933 -18.919 -18.889 -18.888 -18.888 -18.877
-18.871 -18.856 -10.108 -10.102 -10.099 -10.088 -10.077 -10.065
-10.063 -10.062 -10.062 -10.059 -10.058 -10.051 -10.041 -10.040
-10.038 -10.033 -10.021 -10.021 -10.020 -10.019  -1.022  -1.016
 -1.007  -0.996  -0.970  -0.970  -0.946  -0.937  -0.936  -0.922
 -0.764  -0.763  -0.728  -0.723  -0.715  -0.707  -0.694  -0.660
 -0.650  -0.620  -0.597  -0.581  -0.547  -0.545  -0.537  -0.537
 -0.515  -0.512  -0.488  -0.478  -0.468  -0.462  -0.451  -0.436
 -0.434  -0.433  -0.425  -0.413  -0.411  -0.406  -0.403  -0.400
 -0.392  -0.388  -0.370  -0.366  -0.362  -0.359  -0.353  -0.344
 -0.342  -0.338  -0.335  -0.332  -0.331  -0.326  -0.323  -0.312
 -0.309  -0.306  -0.303  -0.299  -0.298  -0.295  -0.280  -0.276
 -0.275  -0.262  -0.251  -0.246  -0.242  -0.233  -0.233  -0.194
 -0.177  -0.169  -0.162  -0.160  -0.160  -0.151  -0.145  -0.143
 -0.137

          Ground-State Mulliken Net Atomic Charges

     Atom                 Charge (a.u.)
  ----------------------------------------
      1 O                    -0.223052
      2 C                     0.213420
      3 C                    -0.081824
      4 C                    -0.078427
      5 C                     0.213653
      6 O                    -0.170383
      7 C                    -0.049351
      8 C                    -0.058761
      9 O                    -0.168667
     10 C                     0.215257
     11 C                    -0.077571
     12 C                    -0.079213
     13 C                     0.210007
     14 O                    -0.209001
     15 O                    -0.169508
     16 O                    -0.166647
     17 O                    -0.223480
     18 C                    -0.128594
     19 C                     0.025386
     20 C                    -0.144504
     21 C                    -0.143745
     22 C                     0.026055
     23 O                    -0.184511
     24 H                     0.084270
     25 H                     0.085762
     26 H                     0.090778
     27 H                     0.078016
     28 H                     0.072845
     29 H                     0.078279
     30 H                     0.074096
     31 H                     0.083198
     32 O                    -0.207225
     33 C                    -0.127243
     34 C                     0.026460
     35 C                    -0.144315
     36 C                    -0.143716
     37 C                     0.025442
     38 O                    -0.187406
     39 H                     0.082652
     40 H                     0.087075
     41 H                     0.085760
     42 H                     0.088126
     43 H                     0.077660
     44 H                     0.073416
     45 H                     0.078152
     46 H                     0.073806
     47 H                     0.085246
     48 H                     0.092253
     49 H                     0.087304
     50 H                     0.093002
     51 H                     0.090561
     52 H                     0.091079
     53 H                     0.100600
     54 H                     0.093545
     55 H                     0.089993
     56 H                     0.093991
  ----------------------------------------
  Sum of atomic charges =    -0.000000

                    Cartesian Multipole Moments
 -----------------------------------------------------------------
    Charge (ESU x 10^10)
                -0.0000
    Dipole Moment (Debye)
         X       0.0277      Y       0.6011      Z      -1.7245
       Tot       1.8265
    Quadrupole Moments (Debye-Ang)
        XX    -145.0262     XY     -12.5140     YY    -162.1287
        XZ     -10.0585     YZ      -2.8548     ZZ    -160.8268

 Total job time:  99.29s(wall), 4726.44s(cpu)
        *  Thank you very much for using Q-Chem.  Have a nice day.  *
