 Q-Chem 5.0, Q-Chem, Inc., Pleasanton, CA (2017)
 Q-Chem 5.0.1 for Intel X86 EM64T Linux

User input:
--------------------------------------------------------------
$molecule
0  1
O -0.6377683055 -0.9492741067 -0.4650240206
C -1.7585729782 -0.4595926024 -0.75534582
C -3.1163515216 -0.917641768 -0.1183028221
C -3.8446205201 0.1390007843 0.8145034252
C -3.2459875645 1.5943852016 0.8780944033
O -1.8766054279 1.6016898996 0.4605101121
C -0.9838101655 2.4321721546 1.3014481696
C 0.2287339592 1.4781114782 1.645779767
O 1.4802560136 2.1000571527 1.1602151575
C 2.2666618145 1.3048491528 0.2517738958
C 2.1440863171 -0.2574285703 0.2974093391
C 3.1740510921 -0.9818336422 -0.657489793
C 4.3179365428 -0.0615969618 -1.2256908537
O 4.5442390761 0.1729799607 -2.4331985838
O -1.9941660812 0.4169244848 -1.8535273203
O 5.1917846222 0.3188714391 -0.15254531
O 3.054048038 1.9304333908 -0.4959547025
C 6.2579437918 1.2010481954 -0.6736413411
C 2.446435414 -0.9596874062 1.6896059448
C 1.7092891775 -2.3574322318 1.6514620454
C 2.6290312186 -3.1437818288 0.6437421494
C 3.7542302327 -2.0721261366 0.3419425415
O 3.8765271136 -1.3255193049 1.6157136698
H 1.117779478 -0.5189798826 -0.0440142727
H 2.6595870798 -1.4411944585 -1.5194947698
H 2.2535063128 -0.3403454542 2.5866463422
H 1.7082115587 -2.8254789536 2.6489300588
H 0.6707616469 -2.2653155671 1.2928616476
H 3.0661340576 -4.041745249 1.1087226459
H 2.0913163212 -3.4444855515 -0.2697735474
H 4.7349034497 -2.4918566376 0.0456917504
O -3.8324477445 2.5922597304 1.3491175937
C -0.7022778602 0.8579755239 -2.4302849986
C -4.2597597704 -1.2084873707 -1.1879151873
C -5.3094882132 -2.178021023 -0.5147687174
C -6.0258425982 -1.1952081012 0.4840430614
C -5.2913224569 0.1644964886 0.1591326796
O -4.99193241 0.0731886056 -1.2884289437
H -2.8835081943 -1.8268843648 0.4638570623
H -3.8823324489 -0.2237278299 1.8593020938
H -0.0693713455 -0.0047427754 -2.7217717913
H -3.8899437166 -1.5233883181 -2.1827903726
H -6.0102679267 -2.5682532886 -1.2701151875
H -4.8264722364 -3.0276779103 -0.0062216335
H -7.1032513514 -1.112991475 0.2704320947
H -5.89618922 -1.4914205511 1.5373659205
H -5.8656839422 1.084696041 0.3838196709
H -0.1380678838 1.4860319734 -1.7106328649
H -0.9543949815 1.45714984 -3.3239458422
H 6.9286901228 1.4081326018 0.1803988639
H 5.8385793583 2.154460233 -1.0557902881
H 6.8314192727 0.7157230047 -1.4899347632
H 0.3081064652 1.3442513549 2.7464821864
H 0.0151121837 0.4946744619 1.1848922297
H -1.5116107863 2.8001863961 2.2058159305
H -0.6149744165 3.3068699239 0.721096467
$end

$rem
JOBTYPE                   OPT
METHOD                    B3LYP
DFT_D                     d3_op
BASIS                     STO-3G
GEOM_OPT_MAX_CYCLES       100
GEOM_OPT_TOL_GRADIENT     300
GEOM_OPT_TOL_DISPLACEMENT 1200
GEOM_OPT_TOL_ENERGY       100
SYMMETRY                  False
THRESH                    12
SCF_CONVERGENCE           8
MAX_SUB_FILE_NUM          128
MEM_STATIC                400
MEM_TOTAL                 4000
$end
--------------------------------------------------------------

   16   -1510.2666572600      5.28E-09 Convergence criterion met
 Total energy in the final basis set = -1510.26665726
   14   -1510.2546266496      4.83E-09 Convergence criterion met
 Total energy in the final basis set = -1510.25462665
   14   -1510.2696856744      5.42E-09 Convergence criterion met
 Total energy in the final basis set = -1510.26968567
   14   -1510.2715961557      4.45E-09 Convergence criterion met
 Total energy in the final basis set = -1510.27159616
   13   -1510.2743371719      8.69E-09 Convergence criterion met
 Total energy in the final basis set = -1510.27433717
   14   -1510.2773435390      2.39E-09 Convergence criterion met
 Total energy in the final basis set = -1510.27734354
   13   -1510.2787245072      9.88E-09 Convergence criterion met
 Total energy in the final basis set = -1510.27872451
   13   -1510.2790299645      5.05E-09 Convergence criterion met
   12   -1510.2937273525      3.15E-09 Convergence criterion met
 Total energy in the final basis set = -1510.29372735
   11   -1510.2937400693      9.47E-09 Convergence criterion met
 Total energy in the final basis set = -1510.29374007
   10   -1510.2937410582      6.74E-09 Convergence criterion met
 Total energy in the final basis set = -1510.29374106
    9   -1510.2937438058      6.44E-09 Convergence criterion met
 Total energy in the final basis set = -1510.29374381
    9   -1510.2937428556      5.13E-09 Convergence criterion met
 Total energy in the final basis set = -1510.29374286
    9   -1510.2937350311      3.79E-09 Convergence criterion met
 Total energy in the final basis set = -1510.29373503

             Standard Nuclear Orientation (Angstroms)
    I     Atom           X                Y                Z
 ----------------------------------------------------------------
    1      O      -0.1655236609    -1.4751990981    -1.7396969375
    2      C      -1.1035473877    -0.7552594718    -1.3145351714
    3      C      -2.3131384669    -1.2739570233    -0.4677029880
    4      C      -3.0509520164    -0.2106289677     0.4458174979
    5      C      -2.4242977145     1.2276497643     0.4891037388
    6      O      -1.1723555577     1.1584823138     1.2043102979
    7      C      -0.6292775801     2.5214797857     1.4214785429
    8      C       0.5180846726     2.4046418900     2.4972909308
    9      O       1.8740463619     2.5852077189     1.9414182193
   10      C       2.3477783338     1.5313372480     1.0874433032
   11      C       1.5764295831     0.1622371624     1.0079554542
   12      C       2.1483363721    -0.7355974140    -0.1644129727
   13      C       3.0661417974     0.0507453825    -1.1599886857
   14      O       2.6431116084     0.8405843580    -2.0452838952
   15      O      -1.2484374406     0.6261779333    -1.5857890023
   16      O       4.4229711298    -0.3767614738    -1.0654405468
   17      O       3.4191819082     1.7582461732     0.4758188310
   18      C       5.2588042608     0.4012306149    -2.0075434981
   19      C       1.9452915181    -0.7435483394     2.2628417139
   20      C       1.0061028163    -2.0158067402     2.2452233700
   21      C       1.6810694231    -2.8792976939     1.1162942340
   22      C       2.8363318207    -1.9079089749     0.6463567820
   23      O       3.2796784192    -1.2742945226     1.9110424622
   24      H       0.4814320946     0.3312409445     0.9226971092
   25      H       1.3093963065    -1.1266262341    -0.7803484141
   26      H       1.9897098158    -0.2073416919     3.2306700257
   27      H       1.0282482038    -2.5286300870     3.2198665616
   28      H      -0.0366669668    -1.7491879119     2.0084003907
   29      H       2.0989797361    -3.8151967520     1.5203402237
   30      H       0.9887090211    -3.1214941593     0.2939988100
   31      H       3.6903369931    -2.3899326752     0.1336765737
   32      O      -2.9493681430     2.2983853094     0.1231452944
   33      C      -0.2053336306     1.1220224743    -2.5250248694
   34      C      -3.5061575915    -1.6949713453    -1.4399152252
   35      C      -4.5318128087    -2.5794817696    -0.6270100031
   36      C      -5.2664323268    -1.4833452121     0.2312689473
   37      C      -4.4935168363    -0.1830109372    -0.2170600449
   38      O      -4.2237018326    -0.4206366807    -1.6540341335
   39      H      -1.9595196220    -2.1383941275     0.1215918231
   40      H      -3.0966642778    -0.5804808504     1.4868825146
   41      H      -0.3297346054     0.6348452304    -3.5127890332
   42      H      -3.1747974574    -2.1255652955    -2.4049715568
   43      H      -5.2262070405    -3.0899739558    -1.3128394713
   44      H      -4.0252840602    -3.3369390025    -0.0077715072
   45      H      -6.3320193702    -1.4083587018    -0.0379631720
   46      H      -5.1873754803    -1.6645165153     1.3152138100
   47      H      -5.0317439902     0.7750410360    -0.0796446943
   48      H       0.8552688980     0.9662511054    -2.1757382623
   49      H      -0.4110715116     2.2028266143    -2.6296193736
   50      H       6.2730157011    -0.0345666217    -1.9489392117
   51      H       5.2942996132     1.4703437160    -1.7143084051
   52      H       4.8776549763     0.3299084086    -3.0466794395
   53      H       0.4165844679     3.2312251953     3.2293429951
   54      H       0.4034358896     1.4435058589     3.0426020020
   55      H      -1.4355716081     3.1977615104     1.7763613525
   56      H      -0.2234716289     2.9426626701     0.4747412027
 ----------------------------------------------------------------

    9   -1510.2937356689      4.65E-09 Convergence criterion met
 Total energy in the final basis set = -1510.29373567
 Final energy is   -1510.29373566891
 **  OPTIMIZATION CONVERGED  **

                    Orbital Energies (a.u.)
 --------------------------------------------------------------

 Alpha MOs
 -- Occupied --
-18.947 -18.945 -18.940 -18.926 -18.896 -18.887 -18.883 -18.882
-18.882 -18.857 -10.114 -10.111 -10.103 -10.093 -10.088 -10.084
-10.069 -10.065 -10.059 -10.053 -10.050 -10.048 -10.047 -10.041
-10.027 -10.026 -10.025 -10.019 -10.015 -10.014  -1.026  -1.017
 -1.012  -0.999  -0.978  -0.965  -0.950  -0.944  -0.941  -0.924
 -0.772  -0.756  -0.734  -0.721  -0.716  -0.709  -0.701  -0.656
 -0.651  -0.623  -0.598  -0.592  -0.554  -0.546  -0.542  -0.534
 -0.521  -0.511  -0.495  -0.482  -0.475  -0.465  -0.456  -0.444
 -0.436  -0.430  -0.427  -0.413  -0.411  -0.407  -0.405  -0.402
 -0.399  -0.392  -0.379  -0.377  -0.364  -0.363  -0.358  -0.355
 -0.348  -0.340  -0.332  -0.331  -0.330  -0.325  -0.316  -0.315
 -0.314  -0.313  -0.308  -0.305  -0.302  -0.289  -0.285  -0.276
 -0.267  -0.261  -0.251  -0.249  -0.242  -0.237  -0.228  -0.190
 -0.184  -0.179  -0.167  -0.164  -0.158  -0.152  -0.152  -0.141
 -0.136

          Ground-State Mulliken Net Atomic Charges

     Atom                 Charge (a.u.)
  ----------------------------------------
      1 O                    -0.219991
      2 C                     0.215248
      3 C                    -0.079723
      4 C                    -0.080157
      5 C                     0.223231
      6 O                    -0.182554
      7 C                    -0.052388
      8 C                    -0.048350
      9 O                    -0.168190
     10 C                     0.210603
     11 C                    -0.101073
     12 C                    -0.098535
     13 C                     0.223448
     14 O                    -0.233143
     15 O                    -0.166009
     16 O                    -0.164816
     17 O                    -0.194096
     18 C                    -0.126438
     19 C                     0.022475
     20 C                    -0.144728
     21 C                    -0.144353
     22 C                     0.024479
     23 O                    -0.190158
     24 H                     0.098671
     25 H                     0.104082
     26 H                     0.075968
     27 H                     0.075252
     28 H                     0.069637
     29 H                     0.075302
     30 H                     0.077310
     31 H                     0.089853
     32 O                    -0.206307
     33 C                    -0.148622
     34 C                     0.026196
     35 C                    -0.143946
     36 C                    -0.143854
     37 C                     0.025506
     38 O                    -0.185948
     39 H                     0.084430
     40 H                     0.083568
     41 H                     0.081764
     42 H                     0.085330
     43 H                     0.080096
     44 H                     0.074413
     45 H                     0.079838
     46 H                     0.073311
     47 H                     0.091383
     48 H                     0.120268
     49 H                     0.085174
     50 H                     0.088553
     51 H                     0.094152
     52 H                     0.088314
     53 H                     0.095764
     54 H                     0.089814
     55 H                     0.094796
     56 H                     0.095149
  ----------------------------------------
  Sum of atomic charges =     0.000000

                    Cartesian Multipole Moments
 -----------------------------------------------------------------
    Charge (ESU x 10^10)
                -0.0000
    Dipole Moment (Debye)
         X      -3.1174      Y      -1.8614      Z       2.1442
       Tot       4.2167
    Quadrupole Moments (Debye-Ang)
        XX    -166.8439     XY       4.1305     YY    -159.9417
        XZ     -12.1986     YZ       3.0787     ZZ    -156.2804

 Total job time:  148.23s(wall), 7073.98s(cpu)
        *  Thank you very much for using Q-Chem.  Have a nice day.  *
