 Q-Chem 5.0, Q-Chem, Inc., Pleasanton, CA (2017)
 Q-Chem 5.0.1 for Intel X86 EM64T Linux

User input:
--------------------------------------------------------------
$molecule
0  1
O -3.94934 -3.66094 2.70899
C -3.26408 -4.56952 2.26188
C -3.36658 -6.02376 2.66595
C -3.88107 -7.01264 1.60705
C -4.06705 -6.46695 0.20858
O -4.18066 -5.1066 0.25262
C -5.21348 -4.59989 -0.59931
C -6.11555 -3.64684 0.17791
O -6.11689 -2.35425 -0.44827
C -5.75379 -1.31946 0.34954
C -6.00755 -1.58824 1.81379
C -5.74299 -0.39688 2.74596
C -5.61742 0.95454 2.07171
O -4.63348 1.67887 2.1136
O -2.2126 -4.23678 1.4556
O -6.70273 1.39493 1.37478
O -5.29451 -0.3054 -0.14917
C -6.76863 2.60223 0.71113
C -7.50384 -1.84309 2.18762
C -7.57695 -2.66533 3.47535
C -7.09679 -1.64351 4.48797
C -7.0196 -0.3961 3.59823
O -8.00807 -0.60518 2.62375
H -5.42578 -2.33642 2.20681
H -4.81162 -0.53563 3.34226
H -8.10036 -2.33071 1.38903
H -8.65709 -2.86613 3.6597
H -7.02589 -3.62995 3.47958
H -7.87445 -1.53799 5.2763
H -6.10882 -1.86156 4.9489
H -7.11705 0.53356 4.20144
O -4.3403 -7.16317 -0.76185
C -1.92908 -2.95197 1.04006
C -1.99708 -6.6313 3.00542
C -2.17252 -7.87284 3.88026
C -2.69699 -8.86195 2.86104
C -2.69013 -7.99532 1.59899
O -1.56736 -7.16513 1.77831
H -4.03425 -6.04499 3.55678
H -4.82359 -7.53137 1.89058
H -1.72921 -2.3008 1.91762
H -1.31176 -5.90506 3.49544
H -1.16475 -8.20899 4.21331
H -2.82313 -7.71303 4.76698
H -1.94822 -9.67773 2.7474
H -3.69491 -9.29631 3.08617
H -2.67452 -8.64437 0.69564
H -2.78118 -2.54219 0.45619
H -1.02782 -2.96919 0.3939
H -7.7644 2.69961 0.23226
H -5.98664 2.64913 -0.07659
H -6.63201 3.44036 1.42738
H -7.14996 -4.01039 -0.00754
H -6.0659 -3.91192 1.2414
H -5.85153 -5.39354 -1.05714
H -4.74409 -4.06029 -1.45022
$end

$opt
CONSTRAINT
tors           1           2           3           4    +112.516
tors           3           4           5           6     -20.903
tors           4           5           6           7    -137.055
tors           5           6           7           8    +129.800
tors           6           7           8           9    +121.509
tors           7           8           9          10    -123.763
tors           8           9          10          11     -25.541
tors           9          10          11          12    -174.249
tors          11          12          13          14    -119.972
ENDCONSTRAINT
$end

$rem
JOBTYPE                   OPT
METHOD                    B3LYP
DFT_D                     d3_op
BASIS                     STO-3G
GEOM_OPT_MAX_CYCLES       100
GEOM_OPT_TOL_GRADIENT     300
GEOM_OPT_TOL_DISPLACEMENT 1200
GEOM_OPT_TOL_ENERGY       100
SYMMETRY                  False
THRESH                    12
SCF_CONVERGENCE           8
MAX_SUB_FILE_NUM          128
MEM_STATIC                400
MEM_TOTAL                 4000
$end
--------------------------------------------------------------

   15   -1510.1168916913      8.27E-09 Convergence criterion met
 Total energy in the final basis set = -1510.11689169
   14   -1510.1921787546      4.90E-09 Convergence criterion met
 Total energy in the final basis set = -1510.19217875
   14   -1510.2256791205      6.87E-09 Convergence criterion met
 Total energy in the final basis set = -1510.22567912
   14   -1510.2492399872      3.97E-09 Convergence criterion met
 Total energy in the final basis set = -1510.24923999
   13   -1510.2580775179      9.49E-09 Convergence criterion met
 Total energy in the final basis set = -1510.25807752
   13   -1510.2628268632      5.69E-09 Convergence criterion met
 Total energy in the final basis set = -1510.26282686
   13   -1510.2650618758      3.70E-09 Convergence criterion met
 Total energy in the final basis set = -1510.26506188
   13   -1510.2659064671      2.01E-09 Convergence criterion met
   11   -1510.2666858248      4.68E-09 Convergence criterion met
 Total energy in the final basis set = -1510.26668582
   10   -1510.2667196819      8.07E-09 Convergence criterion met
 Total energy in the final basis set = -1510.26671968
   10   -1510.2667295206      7.20E-09 Convergence criterion met
 Total energy in the final basis set = -1510.26672952
    9   -1510.2667341032      9.08E-09 Convergence criterion met
 Total energy in the final basis set = -1510.26673410
    9   -1510.2667364357      4.02E-09 Convergence criterion met
 Total energy in the final basis set = -1510.26673644
    9   -1510.2667378290      3.43E-09 Convergence criterion met
 Total energy in the final basis set = -1510.26673783

             Standard Nuclear Orientation (Angstroms)
    I     Atom           X                Y                Z
 ----------------------------------------------------------------
    1      O      -0.6377683055    -0.9492741067    -0.4650240206
    2      C      -1.7585729782    -0.4595926024    -0.7553458200
    3      C      -3.1163515216    -0.9176417680    -0.1183028221
    4      C      -3.8446205201     0.1390007843     0.8145034252
    5      C      -3.2459875645     1.5943852016     0.8780944033
    6      O      -1.8766054279     1.6016898996     0.4605101121
    7      C      -0.9838101655     2.4321721546     1.3014481696
    8      C       0.2287339592     1.4781114782     1.6457797670
    9      O       1.4802560136     2.1000571527     1.1602151575
   10      C       2.2666618145     1.3048491528     0.2517738958
   11      C       2.1440863171    -0.2574285703     0.2974093391
   12      C       3.1740510921    -0.9818336422    -0.6574897930
   13      C       4.3179365428    -0.0615969618    -1.2256908537
   14      O       4.5442390761     0.1729799607    -2.4331985838
   15      O      -1.9941660812     0.4169244848    -1.8535273203
   16      O       5.1917846222     0.3188714391    -0.1525453100
   17      O       3.0540480380     1.9304333908    -0.4959547025
   18      C       6.2579437918     1.2010481954    -0.6736413411
   19      C       2.4464354140    -0.9596874062     1.6896059448
   20      C       1.7092891775    -2.3574322318     1.6514620454
   21      C       2.6290312186    -3.1437818288     0.6437421494
   22      C       3.7542302327    -2.0721261366     0.3419425415
   23      O       3.8765271136    -1.3255193049     1.6157136698
   24      H       1.1177794780    -0.5189798826    -0.0440142727
   25      H       2.6595870798    -1.4411944585    -1.5194947698
   26      H       2.2535063128    -0.3403454542     2.5866463422
   27      H       1.7082115587    -2.8254789536     2.6489300588
   28      H       0.6707616469    -2.2653155671     1.2928616476
   29      H       3.0661340576    -4.0417452490     1.1087226459
   30      H       2.0913163212    -3.4444855515    -0.2697735474
   31      H       4.7349034497    -2.4918566376     0.0456917504
   32      O      -3.8324477445     2.5922597304     1.3491175937
   33      C      -0.7022778602     0.8579755239    -2.4302849986
   34      C      -4.2597597704    -1.2084873707    -1.1879151873
   35      C      -5.3094882132    -2.1780210230    -0.5147687174
   36      C      -6.0258425982    -1.1952081012     0.4840430614
   37      C      -5.2913224569     0.1644964886     0.1591326796
   38      O      -4.9919324100     0.0731886056    -1.2884289437
   39      H      -2.8835081943    -1.8268843648     0.4638570623
   40      H      -3.8823324489    -0.2237278299     1.8593020938
   41      H      -0.0693713455    -0.0047427754    -2.7217717913
   42      H      -3.8899437166    -1.5233883181    -2.1827903726
   43      H      -6.0102679267    -2.5682532886    -1.2701151875
   44      H      -4.8264722364    -3.0276779103    -0.0062216335
   45      H      -7.1032513514    -1.1129914750     0.2704320947
   46      H      -5.8961892200    -1.4914205511     1.5373659205
   47      H      -5.8656839422     1.0846960410     0.3838196709
   48      H      -0.1380678838     1.4860319734    -1.7106328649
   49      H      -0.9543949815     1.4571498400    -3.3239458422
   50      H       6.9286901228     1.4081326018     0.1803988639
   51      H       5.8385793583     2.1544602330    -1.0557902881
   52      H       6.8314192727     0.7157230047    -1.4899347632
   53      H       0.3081064652     1.3442513549     2.7464821864
   54      H       0.0151121837     0.4946744619     1.1848922297
   55      H      -1.5116107863     2.8001863961     2.2058159305
   56      H      -0.6149744165     3.3068699239     0.7210964670
 ----------------------------------------------------------------

    8   -1510.2667383276      8.80E-09 Convergence criterion met
 Total energy in the final basis set = -1510.26673833
 Final energy is   -1510.26673832756
 **  OPTIMIZATION CONVERGED  **

                    Orbital Energies (a.u.)
 --------------------------------------------------------------

 Alpha MOs
 -- Occupied --
-18.948 -18.942 -18.932 -18.910 -18.899 -18.897 -18.883 -18.882
-18.881 -18.847 -10.120 -10.119 -10.102 -10.088 -10.081 -10.080
-10.070 -10.070 -10.068 -10.057 -10.054 -10.053 -10.049 -10.045
-10.029 -10.028 -10.025 -10.021 -10.015 -10.014  -1.030  -1.019
 -1.009  -0.988  -0.980  -0.965  -0.955  -0.947  -0.938  -0.913
 -0.774  -0.756  -0.735  -0.719  -0.715  -0.712  -0.699  -0.668
 -0.643  -0.620  -0.600  -0.593  -0.555  -0.547  -0.542  -0.534
 -0.525  -0.512  -0.501  -0.482  -0.477  -0.462  -0.455  -0.443
 -0.441  -0.431  -0.425  -0.421  -0.417  -0.407  -0.404  -0.395
 -0.392  -0.391  -0.388  -0.381  -0.369  -0.362  -0.352  -0.347
 -0.340  -0.339  -0.335  -0.330  -0.327  -0.325  -0.323  -0.318
 -0.316  -0.311  -0.310  -0.307  -0.302  -0.290  -0.289  -0.276
 -0.267  -0.257  -0.249  -0.245  -0.243  -0.233  -0.228  -0.195
 -0.185  -0.175  -0.169  -0.164  -0.154  -0.153  -0.150  -0.137
 -0.130

          Ground-State Mulliken Net Atomic Charges

     Atom                 Charge (a.u.)
  ----------------------------------------
      1 O                    -0.236992
      2 C                     0.227240
      3 C                    -0.081732
      4 C                    -0.077723
      5 C                     0.218477
      6 O                    -0.184836
      7 C                    -0.046501
      8 C                    -0.054405
      9 O                    -0.175154
     10 C                     0.211138
     11 C                    -0.103405
     12 C                    -0.079873
     13 C                     0.212912
     14 O                    -0.224961
     15 O                    -0.159603
     16 O                    -0.170277
     17 O                    -0.195185
     18 C                    -0.127620
     19 C                     0.022390
     20 C                    -0.145261
     21 C                    -0.144325
     22 C                     0.026688
     23 O                    -0.185226
     24 H                     0.107563
     25 H                     0.080979
     26 H                     0.077897
     27 H                     0.073447
     28 H                     0.078421
     29 H                     0.075737
     30 H                     0.073976
     31 H                     0.082863
     32 O                    -0.199524
     33 C                    -0.126815
     34 C                     0.026857
     35 C                    -0.143408
     36 C                    -0.144493
     37 C                     0.025045
     38 O                    -0.185742
     39 H                     0.083845
     40 H                     0.086413
     41 H                     0.091529
     42 H                     0.086800
     43 H                     0.079980
     44 H                     0.074018
     45 H                     0.080349
     46 H                     0.073693
     47 H                     0.090211
     48 H                     0.089198
     49 H                     0.096482
     50 H                     0.086018
     51 H                     0.090228
     52 H                     0.084520
     53 H                     0.083711
     54 H                     0.101375
     55 H                     0.094294
     56 H                     0.098765
  ----------------------------------------
  Sum of atomic charges =    -0.000000

                    Cartesian Multipole Moments
 -----------------------------------------------------------------
    Charge (ESU x 10^10)
                -0.0000
    Dipole Moment (Debye)
         X      -3.5610      Y      -2.9052      Z       1.9744
       Tot       5.0019
    Quadrupole Moments (Debye-Ang)
        XX    -168.9338     XY       6.3668     YY    -160.7816
        XZ      -2.9479     YZ       1.7124     ZZ    -161.5067

 Total job time:  54.18s(wall), 2581.17s(cpu)
        *  Thank you very much for using Q-Chem.  Have a nice day.  *
