 Q-Chem 5.0, Q-Chem, Inc., Pleasanton, CA (2017)
 Q-Chem 5.0.1 for Intel X86 EM64T Linux

User input:
--------------------------------------------------------------
$molecule
0  1
O -3.94934 -3.66094 2.70899
C -3.26408 -4.56952 2.26188
C -3.36658 -6.02376 2.66595
C -3.36795 -7.06811 1.5376
C -3.08802 -6.55426 0.14271
O -2.46385 -7.52198 -0.5917
C -2.11211 -7.0893 -1.91015
C -1.42181 -8.21898 -2.66742
O -2.27481 -8.69517 -3.72028
C -1.80682 -9.76401 -4.41146
C -2.16091 -11.08275 -3.76633
C -1.09822 -12.18149 -3.91374
C 0.27584 -11.71711 -4.35307
O 0.76133 -11.88936 -5.46177
O -2.20557 -4.23893 1.47256
O 0.93962 -10.91082 -3.48069
O -1.58322 -9.681 -5.60911
C 2.15956 -10.32093 -3.73499
C -2.4113 -11.16582 -2.23972
C -3.28935 -12.37785 -1.91625
C -2.31511 -13.51303 -2.15203
C -1.04555 -12.72313 -2.47665
O -1.16931 -11.55318 -1.70119
H -3.10734 -11.38563 -4.26948
H -1.417 -12.9411 -4.6624
H -2.89449 -10.26687 -1.80442
H -3.5223 -12.33644 -0.82773
H -4.23993 -12.44038 -2.48837
H -2.18764 -14.07191 -1.19823
H -2.59028 -14.21417 -2.96951
H -0.13939 -13.34161 -2.29341
O -3.71861 -5.63365 -0.3646
C -1.90939 -2.95746 1.05785
C -2.12571 -6.46505 3.46792
C -2.48021 -7.65234 4.35803
C -2.64251 -8.73804 3.31863
C -2.22007 -7.9778 2.05433
O -1.27437 -7.04635 2.51322
H -4.26109 -6.10938 3.32405
H -4.33585 -7.61338 1.48074
H -1.71709 -2.30512 1.93628
H -1.68539 -5.64751 4.08072
H -1.57767 -7.87808 4.97053
H -3.35163 -7.50503 5.03167
H -1.9221 -9.55375 3.55147
H -3.6687 -9.15371 3.22017
H -1.85047 -8.7163 1.31193
H -2.75032 -2.54594 0.45974
H -0.99895 -2.98209 0.42468
H 2.46363 -9.72125 -2.85275
H 2.08226 -9.64742 -4.61517
H 2.92936 -11.09967 -3.92245
H -0.53242 -7.78496 -3.1783
H -1.01766 -8.98765 -1.97899
H -1.37102 -6.26546 -1.7875
H -2.97247 -6.69196 -2.49562
$end

$opt
CONSTRAINT
tors           1           2           3           4    +134.469
tors           3           4           5           6    +149.320
tors           4           5           6           7    -177.416
tors           5           6           7           8    -180.000
tors           6           7           8           9    +110.673
tors           7           8           9          10    -175.767
tors           8           9          10          11     +86.422
tors           9          10          11          12    -145.393
tors          11          12          13          14    -106.632
ENDCONSTRAINT
$end

$rem
JOBTYPE                   OPT
METHOD                    B3LYP
DFT_D                     d3_op
BASIS                     STO-3G
GEOM_OPT_MAX_CYCLES       100
GEOM_OPT_TOL_GRADIENT     300
GEOM_OPT_TOL_DISPLACEMENT 1200
GEOM_OPT_TOL_ENERGY       100
SYMMETRY                  False
THRESH                    12
SCF_CONVERGENCE           8
MAX_SUB_FILE_NUM          128
MEM_STATIC                400
MEM_TOTAL                 4000
$end
--------------------------------------------------------------

   15   -1510.1200220327      6.77E-09 Convergence criterion met
 Total energy in the final basis set = -1510.12002203
   13   -1510.1908191507      9.40E-09 Convergence criterion met
 Total energy in the final basis set = -1510.19081915
   14   -1510.2290532830      3.72E-09 Convergence criterion met
 Total energy in the final basis set = -1510.22905328
   14   -1510.2465903582      6.97E-09 Convergence criterion met
 Total energy in the final basis set = -1510.24659036
   14   -1510.2534483928      3.52E-09 Convergence criterion met
 Total energy in the final basis set = -1510.25344839
   13   -1510.2565348829      7.10E-09 Convergence criterion met
 Total energy in the final basis set = -1510.25653488
   13   -1510.2581327277      2.13E-09 Convergence criterion met
 Total energy in the final basis set = -1510.25813273
   12   -1510.2590220241      6.61E-09 Convergence criterion met
   11   -1510.2615794234      7.00E-09 Convergence criterion met
 Total energy in the final basis set = -1510.26157942
   11   -1510.2616344321      4.57E-09 Convergence criterion met
 Total energy in the final basis set = -1510.26163443
   11   -1510.2616573059      3.51E-09 Convergence criterion met
 Total energy in the final basis set = -1510.26165731
   11   -1510.2616775853      4.13E-09 Convergence criterion met
 Total energy in the final basis set = -1510.26167759
   11   -1510.2616857373      2.86E-09 Convergence criterion met
 Total energy in the final basis set = -1510.26168574
    9   -1510.2616877498      8.50E-09 Convergence criterion met
 Total energy in the final basis set = -1510.26168775

             Standard Nuclear Orientation (Angstroms)
    I     Atom           X                Y                Z
 ----------------------------------------------------------------
    1      O      -6.2468939916    -1.2997375273     0.3574171644
    2      C      -5.1934009965    -0.7350954542    -0.0086491631
    3      C      -4.6907797333     0.6866219193     0.4222472649
    4      C      -3.1598214151     0.7532443911     0.8221318229
    5      C      -2.4832559764    -0.6592283248     0.9560548876
    6      O      -1.1047410320    -0.5406290605     0.6045376141
    7      C      -0.4273595451    -1.8613807596     0.6536067236
    8      C       1.0633053238    -1.5971006890     0.2516137763
    9      O       1.8978966513    -1.8049853836     1.4693189251
   10      C       3.2577004908    -1.4524706311     1.0850899997
   11      C       3.5964925608     0.0939840754     1.2288956922
   12      C       4.5899971844     0.6102689962     0.1070501878
   13      C       5.1137375933    -0.5190532794    -0.8449882613
   14      O       6.2580076541    -1.0206177784    -0.8620969460
   15      O      -4.3191997329    -1.2437981808    -1.0249398359
   16      O       4.0409981867    -0.9154312354    -1.7102989636
   17      O       4.1060842392    -2.3237746072     0.8056034327
   18      C       4.4601902999    -2.0683597551    -2.5377160008
   19      C       2.3834942570     1.0857616865     1.0589356325
   20      C       2.8276485173     2.5361371393     1.4998303436
   21      C       3.6769294200     2.9946946852     0.2568681386
   22      C       3.6544574336     1.6829247723    -0.6179803285
   23      O       2.2701961281     1.1808516971    -0.4176003026
   24      H       4.0564013955     0.2060666239     2.2300868585
   25      H       5.4732337440     1.0955608618     0.5574847125
   26      H       1.4374224844     0.7352091598     1.5125353596
   27      H       1.9455906595     3.1783635764     1.6503813866
   28      H       3.4146489859     2.5202469432     2.4320603501
   29      H       3.1879105558     3.8231182882    -0.2804999957
   30      H       4.7002041982     3.3010149756     0.5261866076
   31      H       3.8592137249     1.8238266776    -1.6967877658
   32      O      -3.0190192581    -1.7189666216     1.3490195384
   33      C      -4.7616016421    -2.5923285479    -1.4418041204
   34      C      -4.6961635593     1.6659574318    -0.8336049449
   35      C      -4.4933610160     3.1496828286    -0.3264736213
   36      C      -2.9495837986     3.1609059565    -0.0199189964
   37      C      -2.5696588513     1.6626333071    -0.3395188644
   38      O      -3.4195045039     1.3432605977    -1.5091290301
   39      H      -5.3466261967     1.0471128070     1.2334720177
   40      H      -3.0444162490     1.2599068622     1.7991503024
   41      H      -5.8179107316    -2.5920407964    -1.7797852508
   42      H      -5.5490683079     1.5179043483    -1.5239937931
   43      H      -4.7559014462     3.8684727229    -1.1188640235
   44      H      -5.1038768019     3.3680578975     0.5643613804
   45      H      -2.4102358047     3.8444526076    -0.6950223627
   46      H      -2.7227549101     3.4402616385     1.0213896091
   47      H      -1.5029223707     1.4702918537    -0.5641831222
   48      H      -4.6553458343    -3.3241962084    -0.6145752324
   49      H      -4.1027552604    -2.8843234156    -2.2802047277
   50      H       3.5955183656    -2.3132073088    -3.1816684715
   51      H       4.7139839938    -2.9440990028    -1.9054477773
   52      H       5.3372134844    -1.8237260600    -3.1711893260
   53      H       1.3657142076    -2.3314087037    -0.5296919663
   54      H       1.1857802544    -0.5811148250    -0.1899013799
   55      H      -0.9148162127    -2.5679811329    -0.0519827959
   56      H      -0.4729165215    -2.3016129751     1.6743838951
 ----------------------------------------------------------------

    9   -1510.2616882018      3.52E-09 Convergence criterion met
 Total energy in the final basis set = -1510.26168820
 Final energy is   -1510.26168820181
 **  OPTIMIZATION CONVERGED  **

                    Orbital Energies (a.u.)
 --------------------------------------------------------------

 Alpha MOs
 -- Occupied --
-18.935 -18.931 -18.925 -18.911 -18.906 -18.898 -18.887 -18.874
-18.874 -18.865 -10.114 -10.101 -10.099 -10.091 -10.075 -10.068
-10.067 -10.067 -10.062 -10.059 -10.057 -10.056 -10.044 -10.041
-10.037 -10.034 -10.028 -10.026 -10.020 -10.019  -1.017  -1.014
 -1.005  -1.001  -0.979  -0.969  -0.944  -0.935  -0.934  -0.927
 -0.770  -0.762  -0.728  -0.724  -0.715  -0.711  -0.696  -0.660
 -0.654  -0.610  -0.601  -0.579  -0.554  -0.545  -0.543  -0.537
 -0.522  -0.512  -0.486  -0.481  -0.473  -0.466  -0.446  -0.442
 -0.435  -0.432  -0.422  -0.413  -0.410  -0.409  -0.405  -0.400
 -0.392  -0.387  -0.375  -0.369  -0.363  -0.354  -0.350  -0.349
 -0.343  -0.341  -0.339  -0.337  -0.332  -0.329  -0.323  -0.316
 -0.312  -0.310  -0.305  -0.300  -0.297  -0.290  -0.286  -0.282
 -0.272  -0.256  -0.254  -0.252  -0.243  -0.242  -0.233  -0.181
 -0.176  -0.167  -0.166  -0.165  -0.156  -0.152  -0.148  -0.143
 -0.141

          Ground-State Mulliken Net Atomic Charges

     Atom                 Charge (a.u.)
  ----------------------------------------
      1 O                    -0.215101
      2 C                     0.211893
      3 C                    -0.079578
      4 C                    -0.078597
      5 C                     0.214598
      6 O                    -0.174782
      7 C                    -0.046537
      8 C                    -0.057910
      9 O                    -0.194343
     10 C                     0.224795
     11 C                    -0.080974
     12 C                    -0.082528
     13 C                     0.209889
     14 O                    -0.208940
     15 O                    -0.169375
     16 O                    -0.175097
     17 O                    -0.178651
     18 C                    -0.129436
     19 C                     0.019758
     20 C                    -0.144211
     21 C                    -0.142729
     22 C                     0.026616
     23 O                    -0.191740
     24 H                     0.086810
     25 H                     0.085573
     26 H                     0.090924
     27 H                     0.078787
     28 H                     0.075089
     29 H                     0.078916
     30 H                     0.075625
     31 H                     0.086955
     32 O                    -0.215423
     33 C                    -0.128141
     34 C                     0.026062
     35 C                    -0.144548
     36 C                    -0.143510
     37 C                     0.023556
     38 O                    -0.186428
     39 H                     0.084478
     40 H                     0.082841
     41 H                     0.088437
     42 H                     0.082550
     43 H                     0.077635
     44 H                     0.073622
     45 H                     0.077447
     46 H                     0.071839
     47 H                     0.093186
     48 H                     0.090097
     49 H                     0.088041
     50 H                     0.088778
     51 H                     0.093283
     52 H                     0.088541
     53 H                     0.079042
     54 H                     0.105941
     55 H                     0.090445
     56 H                     0.096533
  ----------------------------------------
  Sum of atomic charges =    -0.000000

                    Cartesian Multipole Moments
 -----------------------------------------------------------------
    Charge (ESU x 10^10)
                -0.0000
    Dipole Moment (Debye)
         X       0.6604      Y       3.1970      Z      -0.0997
       Tot       3.2661
    Quadrupole Moments (Debye-Ang)
        XX    -180.4041     XY       2.5617     YY    -154.0885
        XZ       2.8062     YZ      10.9681     ZZ    -156.5966

 Total job time:  56.13s(wall), 2671.21s(cpu)
        *  Thank you very much for using Q-Chem.  Have a nice day.  *
