 Q-Chem 5.0, Q-Chem, Inc., Pleasanton, CA (2017)
 Q-Chem 5.0.1 for Intel X86 EM64T Linux

User input:
--------------------------------------------------------------
$molecule
0  1
O -6.2468939916 -1.2997375273 0.3574171644
C -5.1934009965 -0.7350954542 -0.0086491631
C -4.6907797333 0.6866219193 0.4222472649
C -3.1598214151 0.7532443911 0.8221318229
C -2.4832559764 -0.6592283248 0.9560548876
O -1.104741032 -0.5406290605 0.6045376141
C -0.4273595451 -1.8613807596 0.6536067236
C 1.0633053238 -1.597100689 0.2516137763
O 1.8978966513 -1.8049853836 1.4693189251
C 3.2577004908 -1.4524706311 1.0850899997
C 3.5964925608 0.0939840754 1.2288956922
C 4.5899971844 0.6102689962 0.1070501878
C 5.1137375933 -0.5190532794 -0.8449882613
O 6.2580076541 -1.0206177784 -0.862096946
O -4.3191997329 -1.2437981808 -1.0249398359
O 4.0409981867 -0.9154312354 -1.7102989636
O 4.1060842392 -2.3237746072 0.8056034327
C 4.4601902999 -2.0683597551 -2.5377160008
C 2.383494257 1.0857616865 1.0589356325
C 2.8276485173 2.5361371393 1.4998303436
C 3.67692942 2.9946946852 0.2568681386
C 3.6544574336 1.6829247723 -0.6179803285
O 2.2701961281 1.1808516971 -0.4176003026
H 4.0564013955 0.2060666239 2.2300868585
H 5.473233744 1.0955608618 0.5574847125
H 1.4374224844 0.7352091598 1.5125353596
H 1.9455906595 3.1783635764 1.6503813866
H 3.4146489859 2.5202469432 2.4320603501
H 3.1879105558 3.8231182882 -0.2804999957
H 4.7002041982 3.3010149756 0.5261866076
H 3.8592137249 1.8238266776 -1.6967877658
O -3.0190192581 -1.7189666216 1.3490195384
C -4.7616016421 -2.5923285479 -1.4418041204
C -4.6961635593 1.6659574318 -0.8336049449
C -4.493361016 3.1496828286 -0.3264736213
C -2.9495837986 3.1609059565 -0.0199189964
C -2.5696588513 1.6626333071 -0.3395188644
O -3.4195045039 1.3432605977 -1.5091290301
H -5.3466261967 1.047112807 1.2334720177
H -3.044416249 1.2599068622 1.7991503024
H -5.8179107316 -2.5920407964 -1.7797852508
H -5.5490683079 1.5179043483 -1.5239937931
H -4.7559014462 3.8684727229 -1.1188640235
H -5.1038768019 3.3680578975 0.5643613804
H -2.4102358047 3.8444526076 -0.6950223627
H -2.7227549101 3.4402616385 1.0213896091
H -1.5029223707 1.4702918537 -0.5641831222
H -4.6553458343 -3.3241962084 -0.6145752324
H -4.1027552604 -2.8843234156 -2.2802047277
H 3.5955183656 -2.3132073088 -3.1816684715
H 4.7139839938 -2.9440990028 -1.9054477773
H 5.3372134844 -1.82372606 -3.171189326
H 1.3657142076 -2.3314087037 -0.5296919663
H 1.1857802544 -0.581114825 -0.1899013799
H -0.9148162127 -2.5679811329 -0.0519827959
H -0.4729165215 -2.3016129751 1.6743838951
$end

$rem
JOBTYPE                   OPT
METHOD                    B3LYP
DFT_D                     d3_op
BASIS                     STO-3G
GEOM_OPT_MAX_CYCLES       100
GEOM_OPT_TOL_GRADIENT     300
GEOM_OPT_TOL_DISPLACEMENT 1200
GEOM_OPT_TOL_ENERGY       100
SYMMETRY                  False
THRESH                    12
SCF_CONVERGENCE           8
MAX_SUB_FILE_NUM          128
MEM_STATIC                400
MEM_TOTAL                 4000
$end
--------------------------------------------------------------

   16   -1510.2615673947      3.16E-09 Convergence criterion met
 Total energy in the final basis set = -1510.26156739
   14   -1510.2646720580      5.18E-09 Convergence criterion met
 Total energy in the final basis set = -1510.26467206
   15   -1510.2671734042      2.80E-09 Convergence criterion met
 Total energy in the final basis set = -1510.26717340
   14   -1510.2696819178      9.15E-09 Convergence criterion met
 Total energy in the final basis set = -1510.26968192
   15   -1510.2682080391      3.19E-09 Convergence criterion met
 Total energy in the final basis set = -1510.26820804
   14   -1510.2701937905      6.59E-09 Convergence criterion met
 Total energy in the final basis set = -1510.27019379
   13   -1510.2714270651      6.09E-09 Convergence criterion met
 Total energy in the final basis set = -1510.27142707
   14   -1510.2726619948      5.74E-09 Convergence criterion met
   11   -1510.2849739095      4.56E-09 Convergence criterion met
 Total energy in the final basis set = -1510.28497391
   12   -1510.2850078925      5.79E-09 Convergence criterion met
 Total energy in the final basis set = -1510.28500789
   12   -1510.2849987028      3.30E-09 Convergence criterion met
 Total energy in the final basis set = -1510.28499870
   11   -1510.2850201731      6.12E-09 Convergence criterion met
 Total energy in the final basis set = -1510.28502017
   11   -1510.2850290790      3.40E-09 Convergence criterion met
 Total energy in the final basis set = -1510.28502908
   11   -1510.2850265083      2.91E-09 Convergence criterion met
 Total energy in the final basis set = -1510.28502651

             Standard Nuclear Orientation (Angstroms)
    I     Atom           X                Y                Z
 ----------------------------------------------------------------
    1      O      -4.8968907503    -1.4799548822     1.0090444224
    2      C      -4.4782453158    -0.7078488311     0.1184251377
    3      C      -3.8131072190     0.7006940904     0.3490115728
    4      C      -2.2864695743     0.6133760107     0.7709272342
    5      C      -1.7241851668    -0.8391126858     0.7056642345
    6      O      -0.5721526125    -0.9566603644     1.5568749532
    7      C       0.1069809509    -2.2536240600     1.3035415286
    8      C       1.4592075351    -2.0320082497     0.5286473319
    9      O       2.5723694496    -2.0188311120     1.5071463689
   10      C       3.5087453902    -0.9399903489     1.4352393109
   11      C       3.0815592882     0.5683861765     1.1229767660
   12      C       3.6101770372     1.1011981825    -0.2810193668
   13      C       4.3602701613     0.0432100354    -1.1571113074
   14      O       5.3973878081     0.2263202697    -1.8296953428
   15      O      -4.6100192741    -0.9538972481    -1.2853168031
   16      O       3.6553668707    -1.1985726915    -1.0864537493
   17      O       4.6788113895    -1.1813366001     1.8128522439
   18      C       4.3795218846    -2.2542105337    -1.8287407244
   19      C       1.5527318772     0.9558045270     1.0405932076
   20      C       1.4302949722     2.5235261399     1.1626303844
   21      C       1.8873653659     2.9941036499    -0.2696208887
   22      C       2.2585170215     1.6166365523    -0.9407517633
   23      O       1.2260809938     0.7014605107    -0.3925753823
   24      H       3.5667750784     1.1475907341     1.9293989098
   25      H       4.3079630068     1.9453473426    -0.1423819130
   26      H       0.8439819618     0.3607947031     1.6575275500
   27      H       0.3911316871     2.8173061833     1.3714113587
   28      H       2.0748777033     2.9214887782     1.9620014670
   29      H       1.0620512165     3.4777680526    -0.8163012215
   30      H       2.7453348048     3.6841115391    -0.2397294425
   31      H       2.2387245110     1.6025982950    -2.0479675397
   32      O      -2.1636174220    -1.7803517844     0.0064440653
   33      C      -5.1467643398    -2.3146100083    -1.5060096773
   34      C      -3.7101577808     1.5816204706    -0.9666782463
   35      C      -3.4552236808     3.0790053684    -0.5369447505
   36      C      -1.9486626619     3.0105807341    -0.0889291388
   37      C      -1.6050384295     1.4943589352    -0.3726468524
   38      O      -2.4179461611     1.1701773986    -1.5640988057
   39      H      -4.3941228446     1.2142266242     1.1361318132
   40      H      -2.1001767990     1.0299239860     1.7763431262
   41      H      -6.1202749098    -2.4615164011    -0.9947200399
   42      H      -4.5375537230     1.4264937998    -1.6844469208
   43      H      -3.5907577584     3.7548055123    -1.3962368349
   44      H      -4.1273413825     3.3998698651     0.2750123979
   45      H      -1.3155300697     3.6711798352    -0.7027285064
   46      H      -1.8138528649     3.2804581583     0.9708424737
   47      H      -0.5234454455     1.2518605192    -0.5364690068
   48      H      -4.4360034260    -3.0855898801    -1.1440696240
   49      H      -5.2801849789    -2.4174483358    -2.5986761642
   50      H       3.7124614136    -3.1356295961    -1.8349778458
   51      H       5.3320769613    -2.5142414409    -1.3234242358
   52      H       4.6005329240    -1.9413219913    -2.8691320974
   53      H       1.6298188377    -2.9050837535    -0.1382462102
   54      H       1.4071441318    -1.1048089465    -0.0943171519
   55      H      -0.5868222599    -2.8826782633     0.7046418194
   56      H       0.3069072356    -2.7306266300     2.2853237644
 ----------------------------------------------------------------

    9   -1510.2850270202      7.70E-09 Convergence criterion met
 Total energy in the final basis set = -1510.28502702
 Final energy is   -1510.28502702025
 **  OPTIMIZATION CONVERGED  **

                    Orbital Energies (a.u.)
 --------------------------------------------------------------

 Alpha MOs
 -- Occupied --
-18.946 -18.942 -18.926 -18.923 -18.918 -18.887 -18.887 -18.881
-18.865 -18.857 -10.110 -10.107 -10.099 -10.090 -10.082 -10.071
-10.067 -10.066 -10.057 -10.054 -10.054 -10.050 -10.044 -10.043
-10.038 -10.035 -10.033 -10.032 -10.019 -10.017  -1.023  -1.020
 -1.000  -0.998  -0.994  -0.964  -0.947  -0.945  -0.928  -0.923
 -0.777  -0.760  -0.734  -0.723  -0.719  -0.709  -0.695  -0.669
 -0.651  -0.612  -0.606  -0.579  -0.562  -0.553  -0.541  -0.534
 -0.524  -0.508  -0.495  -0.486  -0.476  -0.456  -0.452  -0.447
 -0.440  -0.432  -0.424  -0.420  -0.417  -0.410  -0.404  -0.399
 -0.397  -0.386  -0.380  -0.371  -0.370  -0.359  -0.354  -0.352
 -0.349  -0.347  -0.337  -0.335  -0.330  -0.326  -0.322  -0.321
 -0.318  -0.311  -0.304  -0.301  -0.299  -0.295  -0.284  -0.278
 -0.273  -0.262  -0.258  -0.251  -0.242  -0.232  -0.227  -0.188
 -0.186  -0.172  -0.165  -0.164  -0.164  -0.158  -0.143  -0.141
 -0.137

          Ground-State Mulliken Net Atomic Charges

     Atom                 Charge (a.u.)
  ----------------------------------------
      1 O                    -0.223198
      2 C                     0.212339
      3 C                    -0.080457
      4 C                    -0.080624
      5 C                     0.216851
      6 O                    -0.177182
      7 C                    -0.060387
      8 C                    -0.062188
      9 O                    -0.180836
     10 C                     0.213656
     11 C                    -0.084155
     12 C                    -0.081249
     13 C                     0.211256
     14 O                    -0.206052
     15 O                    -0.167236
     16 O                    -0.171485
     17 O                    -0.210572
     18 C                    -0.127043
     19 C                     0.009109
     20 C                    -0.145938
     21 C                    -0.142833
     22 C                     0.027376
     23 O                    -0.187436
     24 H                     0.088383
     25 H                     0.089829
     26 H                     0.109244
     27 H                     0.080767
     28 H                     0.077880
     29 H                     0.080953
     30 H                     0.079236
     31 H                     0.090114
     32 O                    -0.206426
     33 C                    -0.126660
     34 C                     0.025497
     35 C                    -0.144508
     36 C                    -0.145662
     37 C                     0.005858
     38 O                    -0.190473
     39 H                     0.081840
     40 H                     0.083268
     41 H                     0.086619
     42 H                     0.089049
     43 H                     0.076180
     44 H                     0.071938
     45 H                     0.072116
     46 H                     0.068417
     47 H                     0.103011
     48 H                     0.092154
     49 H                     0.087835
     50 H                     0.093012
     51 H                     0.094990
     52 H                     0.093181
     53 H                     0.080147
     54 H                     0.114984
     55 H                     0.102993
     56 H                     0.092517
  ----------------------------------------
  Sum of atomic charges =    -0.000000

                    Cartesian Multipole Moments
 -----------------------------------------------------------------
    Charge (ESU x 10^10)
                -0.0000
    Dipole Moment (Debye)
         X      -0.7979      Y       2.6814      Z      -0.6057
       Tot       2.8624
    Quadrupole Moments (Debye-Ang)
        XX    -178.0240     XY      -0.5756     YY    -150.0353
        XZ      -2.5102     YZ       9.7327     ZZ    -163.7414

 Total job time:  121.07s(wall), 5767.42s(cpu)
        *  Thank you very much for using Q-Chem.  Have a nice day.  *
