 Q-Chem 5.0, Q-Chem, Inc., Pleasanton, CA (2017)
 Q-Chem 5.0.1 for Intel X86 EM64T Linux

User input:
--------------------------------------------------------------
$molecule
0  1
O -4.3640011557 -2.2032487686 1.7849834542
C -4.492042274 -1.5051829566 0.7558183581
C -4.8994238372 0.0132450758 0.7053759241
C -3.6792831052 1.023836933 0.7674608482
C -2.2971476535 0.3133096439 0.5431765771
O -1.3305615974 1.2797261173 0.1262696123
C -0.0284883321 0.6044287237 -0.1051398868
C 0.9849316903 1.7069112639 -0.5571512937
O 2.3229103275 1.070674623 -0.6816762232
C 3.2746965715 1.7587921901 0.1421106616
C 4.5357855193 0.877989508 0.4194667181
C 4.2621014169 -0.6304535903 0.833141639
C 2.8463448346 -1.20394224 0.4535125022
O 1.9291375752 -1.4825317227 1.2616046929
O -4.3487877573 -2.0003101362 -0.5820714679
O 2.8392416374 -1.5880280062 -0.9253895462
O 3.0735131658 2.8951695398 0.6283678852
C 1.5891796965 -2.3050648958 -1.2649597747
C 5.5735173197 0.6920991741 -0.7796769921
C 6.9920094498 0.4820627701 -0.1184615102
C 6.8133075104 -0.9561262829 0.4975654628
C 5.3787860537 -1.3519893028 -0.0394646903
O 5.2732542613 -0.6424216119 -1.3362049649
H 5.0472657943 1.392037176 1.253350591
H 4.3981194612 -0.7731557842 1.9198551481
H 5.5219936936 1.4663302221 -1.5696688927
H 7.7777436829 0.4935151998 -0.8911101443
H 7.225440014 1.2487717073 0.6372602746
H 7.5735823277 -1.6574848323 0.119226074
H 6.8540275459 -0.9542140077 1.5988286226
H 5.2142199058 -2.4375059519 -0.1798572767
O -2.047436539 -0.9072882756 0.659137913
C -3.8818529247 -3.4034354083 -0.5457067334
C -5.6093370813 0.4764738834 -0.6379737776
C -6.4467697609 1.7744444113 -0.312275012
C -5.2958463936 2.8313690761 -0.1233940392
C -4.0198559211 1.964700994 -0.4671132995
O -4.5040560394 0.9951659617 -1.4770327152
H -5.561588613 0.1868986421 1.5724077518
H -3.6494518942 1.5797996521 1.7226100963
H -4.5738141472 -4.052693358 0.0289228384
H -6.1559744783 -0.3255647284 -1.169593056
H -7.0965361472 2.0343234854 -1.1633460084
H -7.0719456732 1.6557365035 0.5870425564
H -5.3933202897 3.6704771131 -0.8302067073
H -5.2549074332 3.235389449 0.9008326621
H -3.1474161284 2.5275921125 -0.8511197263
H -2.8717337964 -3.4763688899 -0.0926174764
H -3.8422345967 -3.7415647871 -1.597642836
H 1.0408910371 -1.7329417318 -2.0389190592
H 0.9615404821 -2.4206687323 -0.3579185424
H 1.8566223318 -3.299516694 -1.6731091534
H 0.6878917661 2.1200041794 -1.5441976249
H 1.0417981386 2.53850335 0.1778044318
H -0.1343190699 -0.1647642564 -0.8979260617
H 0.3388371215 0.0919702329 0.8123316795
$end

$rem
JOBTYPE                   OPT
METHOD                    B3LYP
DFT_D                     d3_op
BASIS                     STO-3G
GEOM_OPT_MAX_CYCLES       100
GEOM_OPT_TOL_GRADIENT     300
GEOM_OPT_TOL_DISPLACEMENT 1200
GEOM_OPT_TOL_ENERGY       100
SYMMETRY                  False
THRESH                    12
SCF_CONVERGENCE           8
MAX_SUB_FILE_NUM          128
MEM_STATIC                400
MEM_TOTAL                 4000
$end
--------------------------------------------------------------

   16   -1510.2773976122      6.13E-09 Convergence criterion met
 Total energy in the final basis set = -1510.27739761
   13   -1510.2800232223      6.39E-09 Convergence criterion met
 Total energy in the final basis set = -1510.28002322
   13   -1510.2811580942      4.00E-09 Convergence criterion met
 Total energy in the final basis set = -1510.28115809
   13   -1510.2828611153      3.84E-09 Convergence criterion met
 Total energy in the final basis set = -1510.28286112
   13   -1510.2839163560      4.18E-09 Convergence criterion met
 Total energy in the final basis set = -1510.28391636
   13   -1510.2850244269      3.80E-09 Convergence criterion met
 Total energy in the final basis set = -1510.28502443
   13   -1510.2857544775      3.86E-09 Convergence criterion met
 Total energy in the final basis set = -1510.28575448
   13   -1510.2863737832      4.72E-09 Convergence criterion met
   12   -1510.2980696496      6.25E-09 Convergence criterion met
 Total energy in the final basis set = -1510.29806965
   11   -1510.2980881588      5.51E-09 Convergence criterion met
 Total energy in the final basis set = -1510.29808816
   12   -1510.2980948048      2.13E-09 Convergence criterion met
 Total energy in the final basis set = -1510.29809480
    9   -1510.2980889241      8.73E-09 Convergence criterion met
 Total energy in the final basis set = -1510.29808892
    9   -1510.2980915855      9.80E-09 Convergence criterion met
 Total energy in the final basis set = -1510.29809159
    9   -1510.2980929756      3.95E-09 Convergence criterion met
 Total energy in the final basis set = -1510.29809298

             Standard Nuclear Orientation (Angstroms)
    I     Atom           X                Y                Z
 ----------------------------------------------------------------
    1      O      -2.6881600363    -3.0931726785    -0.3476528054
    2      C      -3.1246675093    -1.9419460149    -0.5674799226
    3      C      -3.2782499817    -0.7839568000     0.4802143430
    4      C      -2.3117611655     0.4494474889     0.2441468621
    5      C      -1.3392068707     0.2650672525    -0.9709498271
    6      O      -0.9087585733     1.5435907370    -1.4170961629
    7      C       0.0951783101     1.4192666020    -2.5022034807
    8      C       1.3871940867     2.2168191818    -2.1128028213
    9      O       2.2964084387     1.4079415482    -1.2716575005
   10      C       2.3673177259     1.9508819574     0.0596620302
   11      C       3.4890219019     1.1878379529     0.8581537158
   12      C       3.1023907253    -0.2679377811     1.3446532234
   13      C       1.6269530677    -0.6462505467     0.9832289424
   14      O       0.7247144358     0.1672913920     0.6718609983
   15      O      -3.6506452452    -1.5052082669    -1.8262250290
   16      O       1.4631208940    -2.0512781597     1.0858945365
   17      O       1.7462548663     2.9689541961     0.4372317017
   18      C       0.0655201204    -2.4470873997     0.7685537001
   19      C       4.7434646491     0.8587585763    -0.0619744630
   20      C       5.9620319884     0.4846939297     0.8724989670
   21      C       5.5677758501    -0.9710223437     1.3219335040
   22      C       4.1827006618    -1.1500088236     0.5844233081
   23      O       4.3776930740    -0.4298453546    -0.6935593449
   24      H       3.7671991669     1.8278763426     1.7137885484
   25      H       3.2175874175    -0.3646718296     2.4404295059
   26      H       4.9580294761     1.6214344147    -0.8347693078
   27      H       6.9029199462     0.4899397028     0.2997730269
   28      H       6.0602386713     1.1812672721     1.7200820631
   29      H       6.2943706665    -1.7159907248     0.9599793145
   30      H       5.4739342060    -1.0708875729     2.4150622011
   31      H       3.8632554483    -2.1947239755     0.4042290974
   32      O      -0.9651908532    -0.8229907769    -1.4778611393
   33      C      -3.4481198939    -2.5595906033    -2.8443572582
   34      C      -4.6932879373    -0.0662278518     0.3785715674
   35      C      -4.9202172122     0.7757261734     1.6970271061
   36      C      -3.9634306764     1.9995467278     1.4455373483
   37      C      -3.3566310543     1.6262379702     0.0375160146
   38      O      -4.4829981635     0.9658870551    -0.6617580665
   39      H      -3.1153389546    -1.2251935234     1.4789692566
   40      H      -1.6708098444     0.6286536843     1.1275788721
   41      H      -3.9209572083    -3.5171842098    -2.5449520496
   42      H      -5.5283741111    -0.7359367417     0.0966108606
   43      H      -5.9721324927     1.0936951220     1.7741007062
   44      H      -4.6562210114     0.2062401732     2.6024854803
   45      H      -4.5255682786     2.9448714841     1.3823806759
   46      H      -3.1867358129     2.1018532003     2.2199694600
   47      H      -2.9651700031     2.4737497699    -0.5572422050
   48      H      -2.3681139838    -2.7393990770    -3.0238585075
   49      H      -3.9204941618    -2.1852059001    -3.7710188240
   50      H       0.0838532015    -3.5426316939     0.6283598972
   51      H      -0.3120714218    -1.9437418272    -0.1530125809
   52      H      -0.6088108579    -2.2021857300     1.6140090017
   53      H       1.9403485459     2.4821862224    -3.0386941156
   54      H       1.1066604374     3.1382166813    -1.5556198460
   55      H      -0.3433571740     1.8528140295    -3.4267368101
   56      H       0.3148782103     0.3413560054    -2.6658768758
 ----------------------------------------------------------------

    9   -1510.2980928330      8.96E-09 Convergence criterion met
 Total energy in the final basis set = -1510.29809283
 Final energy is   -1510.29809283297
 **  OPTIMIZATION CONVERGED  **

                    Orbital Energies (a.u.)
 --------------------------------------------------------------

 Alpha MOs
 -- Occupied --
-18.941 -18.937 -18.923 -18.920 -18.886 -18.884 -18.879 -18.877
-18.864 -18.861 -10.108 -10.104 -10.092 -10.090 -10.068 -10.064
-10.058 -10.058 -10.057 -10.055 -10.054 -10.043 -10.038 -10.035
-10.034 -10.032 -10.020 -10.018 -10.017 -10.016  -1.019  -1.012
 -1.001  -0.999  -0.968  -0.966  -0.941  -0.938  -0.926  -0.925
 -0.762  -0.759  -0.725  -0.720  -0.713  -0.704  -0.692  -0.653
 -0.652  -0.612  -0.595  -0.574  -0.543  -0.542  -0.536  -0.533
 -0.511  -0.510  -0.487  -0.475  -0.466  -0.459  -0.439  -0.436
 -0.432  -0.430  -0.424  -0.413  -0.408  -0.404  -0.402  -0.399
 -0.398  -0.377  -0.372  -0.364  -0.358  -0.354  -0.349  -0.342
 -0.340  -0.336  -0.331  -0.329  -0.326  -0.322  -0.319  -0.312
 -0.309  -0.303  -0.301  -0.297  -0.292  -0.283  -0.278  -0.274
 -0.272  -0.254  -0.249  -0.242  -0.237  -0.233  -0.231  -0.189
 -0.173  -0.166  -0.161  -0.159  -0.156  -0.146  -0.142  -0.142
 -0.140

          Ground-State Mulliken Net Atomic Charges

     Atom                 Charge (a.u.)
  ----------------------------------------
      1 O                    -0.221238
      2 C                     0.210933
      3 C                    -0.081940
      4 C                    -0.077397
      5 C                     0.236114
      6 O                    -0.165734
      7 C                    -0.052846
      8 C                    -0.054209
      9 O                    -0.174520
     10 C                     0.214965
     11 C                    -0.080405
     12 C                    -0.078590
     13 C                     0.217263
     14 O                    -0.220532
     15 O                    -0.169069
     16 O                    -0.169409
     17 O                    -0.219489
     18 C                    -0.141815
     19 C                     0.026891
     20 C                    -0.144664
     21 C                    -0.143649
     22 C                     0.024711
     23 O                    -0.186720
     24 H                     0.083189
     25 H                     0.085013
     26 H                     0.083639
     27 H                     0.077494
     28 H                     0.073206
     29 H                     0.077979
     30 H                     0.073083
     31 H                     0.090774
     32 O                    -0.222829
     33 C                    -0.128032
     34 C                     0.026433
     35 C                    -0.144287
     36 C                    -0.143708
     37 C                     0.024349
     38 O                    -0.187632
     39 H                     0.080954
     40 H                     0.096563
     41 H                     0.086761
     42 H                     0.083358
     43 H                     0.077085
     44 H                     0.072713
     45 H                     0.077667
     46 H                     0.074883
     47 H                     0.091642
     48 H                     0.090804
     49 H                     0.088396
     50 H                     0.091011
     51 H                     0.113855
     52 H                     0.077516
     53 H                     0.083767
     54 H                     0.103904
     55 H                     0.085581
     56 H                     0.106220
  ----------------------------------------
  Sum of atomic charges =    -0.000000

                    Cartesian Multipole Moments
 -----------------------------------------------------------------
    Charge (ESU x 10^10)
                -0.0000
    Dipole Moment (Debye)
         X       0.9570      Y       0.3556      Z       1.1732
       Tot       1.5552
    Quadrupole Moments (Debye-Ang)
        XX    -150.3778     XY       3.0766     YY    -165.0444
        XZ       1.0119     YZ      -2.4755     ZZ    -150.2156

 Total job time:  191.32s(wall), 9117.37s(cpu)
        *  Thank you very much for using Q-Chem.  Have a nice day.  *
