 Q-Chem 5.0, Q-Chem, Inc., Pleasanton, CA (2017)
 Q-Chem 5.0.1 for Intel X86 EM64T Linux

User input:
--------------------------------------------------------------
$molecule
0  1
O -3.94934 -3.66094 2.70899
C -3.26408 -4.56952 2.26188
C -3.36658 -6.02376 2.66595
C -4.33732 -6.90837 1.86659
C -4.96444 -6.28386 0.63989
O -5.4033 -7.26226 -0.20602
C -5.9947 -6.74755 -1.40375
C -6.45916 -7.89438 -2.29548
O -7.15001 -7.3739 -3.44209
C -8.41159 -7.83748 -3.62281
C -9.23763 -6.95701 -4.53006
C -9.14045 -5.45284 -4.23628
C -7.991 -5.02649 -3.34538
O -8.0975 -4.6154 -2.19898
O -2.31378 -4.25882 1.33775
O -6.79314 -4.81884 -3.96612
O -8.90083 -8.78406 -3.01872
C -5.85172 -3.89175 -3.56045
C -8.79464 -6.97673 -6.00963
C -9.98246 -6.60638 -6.89706
C -10.14477 -5.1376 -6.55265
C -8.90914 -4.92714 -5.66726
O -7.96916 -5.84931 -6.16518
H -10.28461 -7.33685 -4.48842
H -10.07375 -5.07126 -3.76641
H -8.36045 -7.95002 -6.32656
H -9.62796 -6.6884 -7.94992
H -10.89782 -7.2245 -6.77522
H -10.07769 -4.54773 -7.49341
H -11.07515 -4.87912 -6.00188
H -8.59775 -3.85914 -5.67199
O -5.01517 -5.08736 0.38063
C -2.08602 -2.98973 0.84853
C -2.03515 -6.77443 2.4525
C -1.97803 -8.01454 3.34217
C -2.96624 -8.90823 2.63202
C -3.33637 -8.0199 1.43971
O -2.15414 -7.31441 1.16396
H -3.58141 -6.02428 3.75807
H -5.16025 -7.3476 2.47233
H -1.79787 -2.30645 1.67572
H -1.13962 -6.14119 2.63866
H -0.96141 -8.45736 3.23884
H -2.19126 -7.8273 4.41661
H -2.42481 -9.81364 2.27663
H -3.85387 -9.20958 3.22914
H -3.70369 -8.67272 0.61966
H -2.99807 -2.60583 0.34326
H -1.2584 -3.02769 0.11098
H -4.95937 -3.96846 -4.21461
H -5.54711 -4.04704 -2.50735
H -6.27366 -2.86869 -3.65433
H -5.57012 -8.46627 -2.63656
H -7.06967 -8.57679 -1.66347
H -5.26076 -6.14054 -1.96956
H -6.87946 -6.17181 -1.0944
$end

$opt
CONSTRAINT
tors           1           2           3           4     +89.949
tors           3           4           5           6    +158.929
tors           4           5           6           7    -179.173
tors           5           6           7           8    -180.000
tors           6           7           8           9    +175.247
tors           7           8           9          10    -123.763
tors           8           9          10          11    +161.053
tors           9          10          11          12     -45.689
tors          11          12          13          14    -109.972
ENDCONSTRAINT
$end

$rem
JOBTYPE                   OPT
METHOD                    B3LYP
DFT_D                     d3_op
BASIS                     STO-3G
GEOM_OPT_MAX_CYCLES       100
GEOM_OPT_TOL_GRADIENT     300
GEOM_OPT_TOL_DISPLACEMENT 1200
GEOM_OPT_TOL_ENERGY       100
SYMMETRY                  False
THRESH                    12
SCF_CONVERGENCE           8
MAX_SUB_FILE_NUM          128
MEM_STATIC                400
MEM_TOTAL                 4000
$end
--------------------------------------------------------------

   15   -1510.1489001914      6.14E-09 Convergence criterion met
 Total energy in the final basis set = -1510.14890019
   14   -1510.2179016991      4.56E-09 Convergence criterion met
 Total energy in the final basis set = -1510.21790170
   14   -1510.2528512049      6.40E-09 Convergence criterion met
 Total energy in the final basis set = -1510.25285120
   15   -1510.2654100236      2.30E-09 Convergence criterion met
 Total energy in the final basis set = -1510.26541002
   14   -1510.2729817212      5.04E-09 Convergence criterion met
 Total energy in the final basis set = -1510.27298172
   13   -1510.2742657320      8.53E-09 Convergence criterion met
 Total energy in the final basis set = -1510.27426573
   13   -1510.2757382075      3.12E-09 Convergence criterion met
 Total energy in the final basis set = -1510.27573821
   12   -1510.2760676797      5.02E-09 Convergence criterion met
   12   -1510.2772890116      3.74E-09 Convergence criterion met
 Total energy in the final basis set = -1510.27728901
   12   -1510.2773578395      2.66E-09 Convergence criterion met
 Total energy in the final basis set = -1510.27735784
   11   -1510.2773750388      6.59E-09 Convergence criterion met
 Total energy in the final basis set = -1510.27737504
    9   -1510.2773816611      9.28E-09 Convergence criterion met
 Total energy in the final basis set = -1510.27738166
    9   -1510.2773831734      4.91E-09 Convergence criterion met
 Total energy in the final basis set = -1510.27738317
    9   -1510.2773845467      2.88E-09 Convergence criterion met
 Total energy in the final basis set = -1510.27738455

             Standard Nuclear Orientation (Angstroms)
    I     Atom           X                Y                Z
 ----------------------------------------------------------------
    1      O      -4.3640011557    -2.2032487686     1.7849834542
    2      C      -4.4920422740    -1.5051829566     0.7558183581
    3      C      -4.8994238372     0.0132450758     0.7053759241
    4      C      -3.6792831052     1.0238369330     0.7674608482
    5      C      -2.2971476535     0.3133096439     0.5431765771
    6      O      -1.3305615974     1.2797261173     0.1262696123
    7      C      -0.0284883321     0.6044287237    -0.1051398868
    8      C       0.9849316903     1.7069112639    -0.5571512937
    9      O       2.3229103275     1.0706746230    -0.6816762232
   10      C       3.2746965715     1.7587921901     0.1421106616
   11      C       4.5357855193     0.8779895080     0.4194667181
   12      C       4.2621014169    -0.6304535903     0.8331416390
   13      C       2.8463448346    -1.2039422400     0.4535125022
   14      O       1.9291375752    -1.4825317227     1.2616046929
   15      O      -4.3487877573    -2.0003101362    -0.5820714679
   16      O       2.8392416374    -1.5880280062    -0.9253895462
   17      O       3.0735131658     2.8951695398     0.6283678852
   18      C       1.5891796965    -2.3050648958    -1.2649597747
   19      C       5.5735173197     0.6920991741    -0.7796769921
   20      C       6.9920094498     0.4820627701    -0.1184615102
   21      C       6.8133075104    -0.9561262829     0.4975654628
   22      C       5.3787860537    -1.3519893028    -0.0394646903
   23      O       5.2732542613    -0.6424216119    -1.3362049649
   24      H       5.0472657943     1.3920371760     1.2533505910
   25      H       4.3981194612    -0.7731557842     1.9198551481
   26      H       5.5219936936     1.4663302221    -1.5696688927
   27      H       7.7777436829     0.4935151998    -0.8911101443
   28      H       7.2254400140     1.2487717073     0.6372602746
   29      H       7.5735823277    -1.6574848323     0.1192260740
   30      H       6.8540275459    -0.9542140077     1.5988286226
   31      H       5.2142199058    -2.4375059519    -0.1798572767
   32      O      -2.0474365390    -0.9072882756     0.6591379130
   33      C      -3.8818529247    -3.4034354083    -0.5457067334
   34      C      -5.6093370813     0.4764738834    -0.6379737776
   35      C      -6.4467697609     1.7744444113    -0.3122750120
   36      C      -5.2958463936     2.8313690761    -0.1233940392
   37      C      -4.0198559211     1.9647009940    -0.4671132995
   38      O      -4.5040560394     0.9951659617    -1.4770327152
   39      H      -5.5615886130     0.1868986421     1.5724077518
   40      H      -3.6494518942     1.5797996521     1.7226100963
   41      H      -4.5738141472    -4.0526933580     0.0289228384
   42      H      -6.1559744783    -0.3255647284    -1.1695930560
   43      H      -7.0965361472     2.0343234854    -1.1633460084
   44      H      -7.0719456732     1.6557365035     0.5870425564
   45      H      -5.3933202897     3.6704771131    -0.8302067073
   46      H      -5.2549074332     3.2353894490     0.9008326621
   47      H      -3.1474161284     2.5275921125    -0.8511197263
   48      H      -2.8717337964    -3.4763688899    -0.0926174764
   49      H      -3.8422345967    -3.7415647871    -1.5976428360
   50      H       1.0408910371    -1.7329417318    -2.0389190592
   51      H       0.9615404821    -2.4206687323    -0.3579185424
   52      H       1.8566223318    -3.2995166940    -1.6731091534
   53      H       0.6878917661     2.1200041794    -1.5441976249
   54      H       1.0417981386     2.5385033500     0.1778044318
   55      H      -0.1343190699    -0.1647642564    -0.8979260617
   56      H       0.3388371215     0.0919702329     0.8123316795
 ----------------------------------------------------------------

    8   -1510.2773853994      9.34E-09 Convergence criterion met
 Total energy in the final basis set = -1510.27738540
 Final energy is   -1510.27738539939
 **  OPTIMIZATION CONVERGED  **

                    Orbital Energies (a.u.)
 --------------------------------------------------------------

 Alpha MOs
 -- Occupied --
-18.941 -18.940 -18.932 -18.919 -18.892 -18.884 -18.884 -18.883
-18.870 -18.856 -10.107 -10.104 -10.100 -10.088 -10.074 -10.072
-10.065 -10.063 -10.058 -10.056 -10.055 -10.052 -10.043 -10.042
-10.039 -10.030 -10.023 -10.022 -10.019 -10.017  -1.021  -1.017
 -1.007  -0.995  -0.973  -0.968  -0.945  -0.940  -0.932  -0.921
 -0.767  -0.761  -0.730  -0.723  -0.714  -0.707  -0.696  -0.658
 -0.650  -0.615  -0.598  -0.581  -0.548  -0.543  -0.540  -0.535
 -0.520  -0.511  -0.489  -0.476  -0.470  -0.460  -0.452  -0.437
 -0.436  -0.431  -0.429  -0.413  -0.408  -0.406  -0.403  -0.400
 -0.393  -0.382  -0.372  -0.367  -0.363  -0.361  -0.349  -0.347
 -0.341  -0.335  -0.335  -0.331  -0.329  -0.328  -0.322  -0.313
 -0.310  -0.308  -0.305  -0.302  -0.297  -0.289  -0.281  -0.277
 -0.272  -0.261  -0.249  -0.243  -0.241  -0.237  -0.231  -0.183
 -0.181  -0.170  -0.164  -0.163  -0.156  -0.153  -0.146  -0.144
 -0.136

          Ground-State Mulliken Net Atomic Charges

     Atom                 Charge (a.u.)
  ----------------------------------------
      1 O                    -0.218554
      2 C                     0.213320
      3 C                    -0.082205
      4 C                    -0.076957
      5 C                     0.215109
      6 O                    -0.173156
      7 C                    -0.051615
      8 C                    -0.053248
      9 O                    -0.169059
     10 C                     0.208218
     11 C                    -0.080616
     12 C                    -0.078084
     13 C                     0.212527
     14 O                    -0.223599
     15 O                    -0.172123
     16 O                    -0.160191
     17 O                    -0.209898
     18 C                    -0.135534
     19 C                     0.026785
     20 C                    -0.141943
     21 C                    -0.145682
     22 C                     0.028042
     23 O                    -0.181273
     24 H                     0.086665
     25 H                     0.086432
     26 H                     0.084979
     27 H                     0.078681
     28 H                     0.074608
     29 H                     0.078752
     30 H                     0.074043
     31 H                     0.085587
     32 O                    -0.206202
     33 C                    -0.127861
     34 C                     0.025170
     35 C                    -0.143357
     36 C                    -0.144895
     37 C                     0.023427
     38 O                    -0.190716
     39 H                     0.082143
     40 H                     0.086800
     41 H                     0.086463
     42 H                     0.088095
     43 H                     0.077179
     44 H                     0.073255
     45 H                     0.077666
     46 H                     0.073291
     47 H                     0.088574
     48 H                     0.092152
     49 H                     0.086270
     50 H                     0.084193
     51 H                     0.103215
     52 H                     0.085384
     53 H                     0.088064
     54 H                     0.103108
     55 H                     0.089121
     56 H                     0.099453
  ----------------------------------------
  Sum of atomic charges =     0.000000

                    Cartesian Multipole Moments
 -----------------------------------------------------------------
    Charge (ESU x 10^10)
                 0.0000
    Dipole Moment (Debye)
         X       1.0802      Y       0.8361      Z      -0.0999
       Tot       1.3697
    Quadrupole Moments (Debye-Ang)
        XX    -139.3965     XY      -8.3087     YY    -158.1346
        XZ       5.3739     YZ       4.6083     ZZ    -166.4845

 Total job time:  82.26s(wall), 3916.91s(cpu)
        *  Thank you very much for using Q-Chem.  Have a nice day.  *
