 Q-Chem 5.0, Q-Chem, Inc., Pleasanton, CA (2017)
 Q-Chem 5.0.1 for Intel X86 EM64T Linux

User input:
--------------------------------------------------------------
$molecule
0  1
O -3.94934 -3.66094 2.70899
C -3.26408 -4.56952 2.26188
C -3.36658 -6.02376 2.66595
C -3.36795 -7.06811 1.5376
C -3.08802 -6.55426 0.14271
O -3.06798 -7.5961 -0.74023
C -2.74976 -7.1952 -2.07712
C -2.54166 -8.42244 -2.95844
O -3.80651 -8.89026 -3.4526
C -4.10004 -10.18403 -3.17128
C -4.63505 -10.37512 -1.77202
C -4.81171 -11.83836 -1.34076
C -4.11119 -12.87018 -2.20175
O -4.36098 -14.0668 -2.21857
O -2.1135 -4.20389 1.62511
O -2.91514 -12.50301 -2.74383
O -4.53035 -10.87669 -4.08199
C -2.0731 -13.34207 -3.44421
C -3.68957 -10.20408 -0.50406
C -4.61363 -9.85914 0.66776
C -5.23307 -11.18898 0.98485
C -4.3856 -12.04516 0.06518
O -3.16692 -11.42998 -0.04658
H -5.55295 -9.75552 -1.65346
H -5.88678 -12.09152 -1.4838
H -2.80099 -9.63378 -0.6498
H -3.93784 -9.67426 1.49239
H -5.35487 -9.04854 0.5133
H -5.07763 -11.43211 2.06032
H -6.31062 -11.28322 0.72419
H -4.3732 -13.11584 0.36895
O -3.1037 -5.39089 -0.23289
C -1.76362 -2.90565 1.31424
C -2.06831 -6.38955 3.42341
C -2.30964 -7.55725 4.36043
C -2.45947 -8.66758 3.35819
C -2.16471 -7.91927 2.03472
O -1.23923 -6.9424 2.43261
H -4.24036 -6.12443 3.34973
H -4.34846 -7.54555 1.5386
H -1.67566 -2.2998 2.24126
H -1.6365 -5.54086 4.00066
H -1.37716 -7.72241 4.9468
H -3.16767 -7.42084 5.05384
H -1.66074 -9.41804 3.55167
H -3.44798 -9.15918 3.43301
H -1.79637 -8.63077 1.26628
H -2.52431 -2.45602 0.64095
H -0.78321 -2.9082 0.79545
H -1.18008 -12.77035 -3.76991
H -2.59157 -13.73971 -4.3426
H -1.74278 -14.182 -2.79648
H -1.99446 -8.07352 -3.86052
H -1.88246 -9.19578 -2.50814
H -1.76384 -6.67467 -2.04809
H -3.50805 -6.50736 -2.5147
$end

$opt
CONSTRAINT
tors           1           2           3           4    +134.469
tors           3           4           5           6    +177.549
tors           4           5           6           7    -177.416
tors           5           6           7           8    +171.595
tors           6           7           8           9     +84.598
tors           7           8           9          10    -123.763
tors           8           9          10          11     +80.788
tors           9          10          11          12    -172.458
tors          11          12          13          14    -162.548
ENDCONSTRAINT
$end

$rem
JOBTYPE                   OPT
METHOD                    B3LYP
DFT_D                     d3_op
BASIS                     STO-3G
GEOM_OPT_MAX_CYCLES       100
GEOM_OPT_TOL_GRADIENT     300
GEOM_OPT_TOL_DISPLACEMENT 1200
GEOM_OPT_TOL_ENERGY       100
SYMMETRY                  False
THRESH                    12
SCF_CONVERGENCE           8
MAX_SUB_FILE_NUM          128
MEM_STATIC                400
MEM_TOTAL                 4000
$end
--------------------------------------------------------------

   15   -1510.0571523094      8.51E-09 Convergence criterion met
 Total energy in the final basis set = -1510.05715231
   14   -1510.1357865585      4.07E-09 Convergence criterion met
 Total energy in the final basis set = -1510.13578656
   14   -1510.1923303508      8.09E-09 Convergence criterion met
 Total energy in the final basis set = -1510.19233035
   14   -1510.2218307793      5.40E-09 Convergence criterion met
 Total energy in the final basis set = -1510.22183078
   14   -1510.2385651566      5.48E-09 Convergence criterion met
 Total energy in the final basis set = -1510.23856516
   13   -1510.2475448906      9.54E-09 Convergence criterion met
 Total energy in the final basis set = -1510.24754489
   13   -1510.2520415521      8.68E-09 Convergence criterion met
 Total energy in the final basis set = -1510.25204155
   13   -1510.2541271145      3.84E-09 Convergence criterion met
    9   -1510.2569817996      9.03E-09 Convergence criterion met
 Total energy in the final basis set = -1510.25698180
    9   -1510.2569842808      3.74E-09 Convergence criterion met
 Total energy in the final basis set = -1510.25698428
    9   -1510.2569864201      3.52E-09 Convergence criterion met
 Total energy in the final basis set = -1510.25698642
    9   -1510.2569892765      4.26E-09 Convergence criterion met
 Total energy in the final basis set = -1510.25698928
    9   -1510.2569920916      3.59E-09 Convergence criterion met
 Total energy in the final basis set = -1510.25699209
    9   -1510.2569932295      3.48E-09 Convergence criterion met
 Total energy in the final basis set = -1510.25699323

             Standard Nuclear Orientation (Angstroms)
    I     Atom           X                Y                Z
 ----------------------------------------------------------------
    1      O      -5.9114780982    -0.8575332028     0.8205491785
    2      C      -4.9039739061    -0.5354869063     0.1530462318
    3      C      -3.9609235812     0.6903458322     0.4373213769
    4      C      -2.4083794504     0.3969454310     0.3680404506
    5      C      -2.0442590365    -1.1255555920     0.3532303666
    6      O      -0.6187180076    -1.2465710728     0.2311068936
    7      C      -0.2106759434    -2.6652525475     0.1489189281
    8      C       1.3199462576    -2.7614761937    -0.1980977882
    9      O       2.2184171957    -2.6622747141     0.9748157091
   10      C       3.2018193298    -1.5966211241     0.8707059831
   11      C       2.7691252642    -0.1117377410     1.2128321334
   12      C       3.9104557465     0.9208820383     0.8591889910
   13      C       4.7777704403     0.5107215698    -0.3857785430
   14      O       5.9012812911     0.9610190382    -0.6973456461
   15      O      -4.5827894071    -1.0896581288    -1.1292708609
   16      O       3.9710674410    -0.2859222968    -1.2681685170
   17      O       4.4089128227    -1.9241294974     0.8340394972
   18      C       4.7297697232    -0.6179086484    -2.4928499097
   19      C       1.4780085970     0.6244333847     0.6569674071
   20      C       1.0745201590     1.6690742041     1.7752486397
   21      C       2.2261672285     2.7296762068     1.6355718678
   22      C       3.0184005214     2.1573358485     0.3952316870
   23      O       1.9772614111     1.4973341543    -0.4293167073
   24      H       2.6709144116    -0.1538854282     2.3165424546
   25      H       4.5723306977     1.1557305684     1.7100861997
   26      H       0.6484839610    -0.0418740112     0.3287369145
   27      H       0.0953604876     2.1155613584     1.5441292479
   28      H       1.0233661978     1.2163619268     2.7780802674
   29      H       1.8319600917     3.7339978860     1.4136146331
   30      H       2.8605076765     2.7911092999     2.5343113863
   31      H       3.5667333571     2.9126145170    -0.2009958821
   32      O      -2.7981207613    -2.1106099582     0.4979045688
   33      C      -5.4825926150    -2.2255813522    -1.4251636919
   34      C      -4.0984700432     1.7248186424    -0.7677300173
   35      C      -3.3972303351     3.0842635097    -0.3720008893
   36      C      -1.8810412192     2.7196861460    -0.5777088177
   37      C      -1.9896156471     1.1901915179    -0.9502426292
   38      O      -3.2028825840     1.1450332979    -1.7955142607
   39      H      -4.2541808882     1.1291859106     1.4065298276
   40      H      -1.8957381732     0.8340181301     1.2452113732
   41      H      -6.5503423757    -1.9375632842    -1.3415262463
   42      H      -5.1270931132     1.8253401758    -1.1649361867
   43      H      -3.7159459165     3.8947721044    -1.0464048997
   44      H      -3.6256956467     3.3784218849     0.6650276924
   45      H      -1.4392716748     3.2812157535    -1.4161538034
   46      H      -1.2725719552     2.8945902274     0.3227258576
   47      H      -1.1157548119     0.7675202543    -1.4831592874
   48      H      -5.2909992212    -3.0775265592    -0.7407226094
   49      H      -5.2582452578    -2.5298799217    -2.4640750347
   50      H       4.0114115881    -1.1073126138    -3.1761064349
   51      H       5.5647174917    -1.3153378714    -2.2746872857
   52      H       5.1456171857     0.2901227780    -2.9747707088
   53      H       1.4835668806    -3.7675021368    -0.6467407655
   54      H       1.5601771035    -2.0033647522    -0.9745309761
   55      H      -0.7928100274    -3.1793159562    -0.6471060893
   56      H      -0.4156553663    -3.1857771539     1.1109589550
 ----------------------------------------------------------------

    9   -1510.2569927357      3.76E-09 Convergence criterion met
 Total energy in the final basis set = -1510.25699274
 Final energy is   -1510.25699273567
 **  OPTIMIZATION CONVERGED  **

                    Orbital Energies (a.u.)
 --------------------------------------------------------------

 Alpha MOs
 -- Occupied --
-18.956 -18.928 -18.925 -18.909 -18.898 -18.894 -18.893 -18.885
-18.868 -18.866 -10.119 -10.108 -10.094 -10.094 -10.087 -10.084
-10.066 -10.064 -10.060 -10.060 -10.057 -10.048 -10.044 -10.040
-10.036 -10.034 -10.024 -10.023 -10.021 -10.019  -1.032  -1.010
 -1.003  -1.000  -0.975  -0.968  -0.956  -0.936  -0.930  -0.928
 -0.769  -0.762  -0.732  -0.722  -0.722  -0.706  -0.701  -0.657
 -0.655  -0.619  -0.600  -0.585  -0.553  -0.546  -0.541  -0.536
 -0.525  -0.513  -0.490  -0.485  -0.474  -0.466  -0.445  -0.440
 -0.439  -0.434  -0.422  -0.415  -0.411  -0.409  -0.407  -0.407
 -0.400  -0.393  -0.382  -0.368  -0.367  -0.364  -0.352  -0.350
 -0.341  -0.338  -0.336  -0.335  -0.334  -0.328  -0.323  -0.320
 -0.315  -0.311  -0.309  -0.302  -0.300  -0.289  -0.287  -0.277
 -0.275  -0.258  -0.250  -0.245  -0.238  -0.235  -0.229  -0.199
 -0.174  -0.171  -0.166  -0.163  -0.157  -0.148  -0.147  -0.145
 -0.141

          Ground-State Mulliken Net Atomic Charges

     Atom                 Charge (a.u.)
  ----------------------------------------
      1 O                    -0.217438
      2 C                     0.212045
      3 C                    -0.080031
      4 C                    -0.079572
      5 C                     0.220097
      6 O                    -0.176385
      7 C                    -0.046453
      8 C                    -0.045659
      9 O                    -0.193540
     10 C                     0.223950
     11 C                    -0.084392
     12 C                    -0.077554
     13 C                     0.214080
     14 O                    -0.215853
     15 O                    -0.167417
     16 O                    -0.172926
     17 O                    -0.186412
     18 C                    -0.127988
     19 C                     0.000013
     20 C                    -0.143373
     21 C                    -0.145737
     22 C                     0.024242
     23 O                    -0.193917
     24 H                     0.082046
     25 H                     0.086662
     26 H                     0.109114
     27 H                     0.067515
     28 H                     0.070596
     29 H                     0.076131
     30 H                     0.074017
     31 H                     0.082263
     32 O                    -0.200727
     33 C                    -0.127497
     34 C                     0.026784
     35 C                    -0.145173
     36 C                    -0.141604
     37 C                     0.026147
     38 O                    -0.184060
     39 H                     0.085319
     40 H                     0.086860
     41 H                     0.088258
     42 H                     0.084170
     43 H                     0.079112
     44 H                     0.073998
     45 H                     0.081736
     46 H                     0.072905
     47 H                     0.089688
     48 H                     0.089522
     49 H                     0.088252
     50 H                     0.087206
     51 H                     0.089122
     52 H                     0.091016
     53 H                     0.088269
     54 H                     0.094736
     55 H                     0.093177
     56 H                     0.094661
  ----------------------------------------
  Sum of atomic charges =    -0.000000

                    Cartesian Multipole Moments
 -----------------------------------------------------------------
    Charge (ESU x 10^10)
                 0.0000
    Dipole Moment (Debye)
         X      -1.2551      Y       1.1444      Z      -0.0549
       Tot       1.6994
    Quadrupole Moments (Debye-Ang)
        XX    -188.1673     XY      -2.0860     YY    -154.2013
        XZ       2.0926     YZ      10.2878     ZZ    -156.6141

 Total job time:  72.78s(wall), 3469.06s(cpu)
        *  Thank you very much for using Q-Chem.  Have a nice day.  *
