 Q-Chem 5.0, Q-Chem, Inc., Pleasanton, CA (2017)
 Q-Chem 5.0.1 for Intel X86 EM64T Linux

User input:
--------------------------------------------------------------
$molecule
0  1
O -5.9114780982 -0.8575332028 0.8205491785
C -4.9039739061 -0.5354869063 0.1530462318
C -3.9609235812 0.6903458322 0.4373213769
C -2.4083794504 0.396945431 0.3680404506
C -2.0442590365 -1.125555592 0.3532303666
O -0.6187180076 -1.2465710728 0.2311068936
C -0.2106759434 -2.6652525475 0.1489189281
C 1.3199462576 -2.7614761937 -0.1980977882
O 2.2184171957 -2.6622747141 0.9748157091
C 3.2018193298 -1.5966211241 0.8707059831
C 2.7691252642 -0.111737741 1.2128321334
C 3.9104557465 0.9208820383 0.859188991
C 4.7777704403 0.5107215698 -0.385778543
O 5.9012812911 0.9610190382 -0.6973456461
O -4.5827894071 -1.0896581288 -1.1292708609
O 3.971067441 -0.2859222968 -1.268168517
O 4.4089128227 -1.9241294974 0.8340394972
C 4.7297697232 -0.6179086484 -2.4928499097
C 1.478008597 0.6244333847 0.6569674071
C 1.074520159 1.6690742041 1.7752486397
C 2.2261672285 2.7296762068 1.6355718678
C 3.0184005214 2.1573358485 0.395231687
O 1.9772614111 1.4973341543 -0.4293167073
H 2.6709144116 -0.1538854282 2.3165424546
H 4.5723306977 1.1557305684 1.7100861997
H 0.648483961 -0.0418740112 0.3287369145
H 0.0953604876 2.1155613584 1.5441292479
H 1.0233661978 1.2163619268 2.7780802674
H 1.8319600917 3.733997886 1.4136146331
H 2.8605076765 2.7911092999 2.5343113863
H 3.5667333571 2.912614517 -0.2009958821
O -2.7981207613 -2.1106099582 0.4979045688
C -5.482592615 -2.2255813522 -1.4251636919
C -4.0984700432 1.7248186424 -0.7677300173
C -3.3972303351 3.0842635097 -0.3720008893
C -1.8810412192 2.719686146 -0.5777088177
C -1.9896156471 1.1901915179 -0.9502426292
O -3.202882584 1.1450332979 -1.7955142607
H -4.2541808882 1.1291859106 1.4065298276
H -1.8957381732 0.8340181301 1.2452113732
H -6.5503423757 -1.9375632842 -1.3415262463
H -5.1270931132 1.8253401758 -1.1649361867
H -3.7159459165 3.8947721044 -1.0464048997
H -3.6256956467 3.3784218849 0.6650276924
H -1.4392716748 3.2812157535 -1.4161538034
H -1.2725719552 2.8945902274 0.3227258576
H -1.1157548119 0.7675202543 -1.4831592874
H -5.2909992212 -3.0775265592 -0.7407226094
H -5.2582452578 -2.5298799217 -2.4640750347
H 4.0114115881 -1.1073126138 -3.1761064349
H 5.5647174917 -1.3153378714 -2.2746872857
H 5.1456171857 0.290122778 -2.9747707088
H 1.4835668806 -3.7675021368 -0.6467407655
H 1.5601771035 -2.0033647522 -0.9745309761
H -0.7928100274 -3.1793159562 -0.6471060893
H -0.4156553663 -3.1857771539 1.110958955
$end

$rem
JOBTYPE                   OPT
METHOD                    B3LYP
DFT_D                     d3_op
BASIS                     STO-3G
GEOM_OPT_MAX_CYCLES       100
GEOM_OPT_TOL_GRADIENT     300
GEOM_OPT_TOL_DISPLACEMENT 1200
GEOM_OPT_TOL_ENERGY       100
SYMMETRY                  False
THRESH                    12
SCF_CONVERGENCE           8
MAX_SUB_FILE_NUM          128
MEM_STATIC                400
MEM_TOTAL                 4000
$end
--------------------------------------------------------------

   16   -1510.2571658174      4.44E-09 Convergence criterion met
 Total energy in the final basis set = -1510.25716582
   14   -1510.2584855518      9.99E-09 Convergence criterion met
 Total energy in the final basis set = -1510.25848555
   14   -1510.2622903240      4.95E-09 Convergence criterion met
 Total energy in the final basis set = -1510.26229032
   14   -1510.2652659216      5.91E-09 Convergence criterion met
 Total energy in the final basis set = -1510.26526592
   12   -1510.2674117163      8.61E-09 Convergence criterion met
 Total energy in the final basis set = -1510.26741172
   13   -1510.2691752067      5.07E-09 Convergence criterion met
 Total energy in the final basis set = -1510.26917521
   13   -1510.2710266411      6.78E-09 Convergence criterion met
 Total energy in the final basis set = -1510.27102664
   14   -1510.2732473860      4.76E-09 Convergence criterion met
   12   -1510.3049068934      4.02E-09 Convergence criterion met
 Total energy in the final basis set = -1510.30490689
   11   -1510.3049208918      6.38E-09 Convergence criterion met
 Total energy in the final basis set = -1510.30492089
   11   -1510.3049396555      9.05E-09 Convergence criterion met
 Total energy in the final basis set = -1510.30493966
   11   -1510.3049455141      3.08E-09 Convergence criterion met
 Total energy in the final basis set = -1510.30494551
   10   -1510.3049524709      7.59E-09 Convergence criterion met
 Total energy in the final basis set = -1510.30495247
    9   -1510.3049591332      8.78E-09 Convergence criterion met
 Total energy in the final basis set = -1510.30495913

             Standard Nuclear Orientation (Angstroms)
    I     Atom           X                Y                Z
 ----------------------------------------------------------------
    1      O      -4.4788260557    -1.7064222123    -1.3631652882
    2      C      -3.5738546284    -0.8494601766    -1.4520436726
    3      C      -3.4078479838     0.4336791732    -0.5570219107
    4      C      -2.4410523524     0.2351483825     0.6824646989
    5      C      -1.8399613701    -1.2033644010     0.7622286293
    6      O      -1.2329826784    -1.3711935101     2.0434631555
    7      C      -0.5744160569    -2.6965434071     2.1474647657
    8      C       0.7357375868    -2.7593414526     1.2875087391
    9      O       1.4487282340    -1.4877024457     1.5444724081
   10      C       2.5581614454    -1.3479453366     0.6514525421
   11      C       3.2016996468     0.0763088780     0.8509362988
   12      C       2.9363836135     1.0579970794    -0.3719872215
   13      C       2.1470057357     0.4317359286    -1.5695313755
   14      O       2.4094212852     0.5871516092    -2.7834018909
   15      O      -2.5991172555    -0.8308662044    -2.5128184469
   16      O       1.0562845302    -0.3370517830    -1.0640557446
   17      O       2.9653410950    -2.2523282728    -0.1097294123
   18      C       0.3446298085    -1.0241070533    -2.1712678952
   19      C       2.5498973484     0.8967221490     2.0382069480
   20      C       3.4734626234     2.1352877464     2.3674473195
   21      C       3.1419077316     3.1004231102     1.1674424992
   22      C       2.1217762129     2.2210922319     0.3464418469
   23      O       1.3637139831     1.5215957730     1.4065989942
   24      H       4.2879286545    -0.0636542515     0.9993667160
   25      H       3.8862802251     1.4451948036    -0.7802447741
   26      H       2.2439494436     0.2839560087     2.9070818656
   27      H       3.1897484127     2.5803462359     3.3341994995
   28      H       4.5384213915     1.8560117769     2.4060577611
   29      H       2.6565431511     4.0254599208     1.5172748707
   30      H       4.0316388940     3.3683421748     0.5757637859
   31      H       1.4310368589     2.7773172494    -0.3168213133
   32      O      -1.8696910889    -2.0884202463    -0.1243993143
   33      C      -2.7467328449    -2.0459278900    -3.3449737489
   34      C      -2.6814768653     1.6274056081    -1.3111983578
   35      C      -2.9246736549     2.9550531757    -0.4890986127
   36      C      -1.9427074351     2.7440993758     0.7222835910
   37      C      -1.3241766000     1.3312423119     0.3833118722
   38      O      -1.2452293673     1.3435621468    -1.0945101656
   39      H      -4.4188200991     0.7189944356    -0.2155236320
   40      H      -2.9524374920     0.4472469574     1.6382370248
   41      H      -3.7729309161    -2.1355056437    -3.7546671763
   42      H      -2.9077353195     1.6902460358    -2.3927295257
   43      H      -2.6471471543     3.8357282972    -1.0900019546
   44      H      -3.9748999733     3.0610801964    -0.1734811546
   45      H      -1.1514202280     3.5106967756     0.7397568070
   46      H      -2.4584497420     2.7511632268     1.6955364892
   47      H      -0.3176079807     1.1403968379     0.8319664089
   48      H      -2.5154020675    -2.9596502355    -2.7603208216
   49      H      -2.0210173337    -1.9410512236    -4.1721606700
   50      H      -0.7430027468    -0.7916554856    -2.1038356180
   51      H       0.5098697912    -2.1150323162    -2.0692558054
   52      H       0.7592394455    -0.6744661476    -3.1369117316
   53      H       1.3474485853    -3.6401477027     1.5846941278
   54      H       0.4822269142    -2.8545679446     0.2109090385
   55      H      -1.2607613694    -3.5121981256     1.8312993973
   56      H      -0.3348577545    -2.8117854997     3.2232603945
 ----------------------------------------------------------------

    9   -1510.3049586432      4.05E-09 Convergence criterion met
 Total energy in the final basis set = -1510.30495864
 Final energy is   -1510.30495864320
 **  OPTIMIZATION CONVERGED  **

                    Orbital Energies (a.u.)
 --------------------------------------------------------------

 Alpha MOs
 -- Occupied --
-18.940 -18.929 -18.929 -18.924 -18.902 -18.880 -18.877 -18.866
-18.865 -18.862 -10.103 -10.098 -10.093 -10.092 -10.079 -10.072
-10.066 -10.065 -10.056 -10.052 -10.038 -10.037 -10.036 -10.032
-10.030 -10.026 -10.025 -10.024 -10.013 -10.009  -1.019  -1.008
 -1.001  -0.998  -0.979  -0.960  -0.942  -0.930  -0.927  -0.925
 -0.766  -0.756  -0.729  -0.720  -0.712  -0.706  -0.692  -0.652
 -0.641  -0.617  -0.595  -0.576  -0.549  -0.541  -0.536  -0.529
 -0.516  -0.504  -0.486  -0.474  -0.466  -0.452  -0.443  -0.441
 -0.436  -0.428  -0.425  -0.413  -0.408  -0.406  -0.403  -0.394
 -0.384  -0.373  -0.370  -0.361  -0.357  -0.356  -0.351  -0.344
 -0.339  -0.337  -0.334  -0.330  -0.326  -0.323  -0.320  -0.309
 -0.307  -0.304  -0.298  -0.295  -0.294  -0.288  -0.278  -0.273
 -0.273  -0.259  -0.250  -0.242  -0.236  -0.233  -0.220  -0.182
 -0.173  -0.172  -0.159  -0.157  -0.155  -0.149  -0.143  -0.143
 -0.135

          Ground-State Mulliken Net Atomic Charges

     Atom                 Charge (a.u.)
  ----------------------------------------
      1 O                    -0.218467
      2 C                     0.216009
      3 C                    -0.082374
      4 C                    -0.080096
      5 C                     0.217151
      6 O                    -0.163685
      7 C                    -0.045578
      8 C                    -0.048679
      9 O                    -0.172557
     10 C                     0.216114
     11 C                    -0.078790
     12 C                    -0.079737
     13 C                     0.212557
     14 O                    -0.214178
     15 O                    -0.169605
     16 O                    -0.170879
     17 O                    -0.221177
     18 C                    -0.150245
     19 C                     0.028058
     20 C                    -0.144271
     21 C                    -0.142923
     22 C                     0.027332
     23 O                    -0.186802
     24 H                     0.084272
     25 H                     0.086019
     26 H                     0.093291
     27 H                     0.078511
     28 H                     0.074844
     29 H                     0.078460
     30 H                     0.076254
     31 H                     0.089663
     32 O                    -0.215553
     33 C                    -0.127286
     34 C                     0.024953
     35 C                    -0.145339
     36 C                    -0.144247
     37 C                     0.008456
     38 O                    -0.193510
     39 H                     0.082819
     40 H                     0.085858
     41 H                     0.088681
     42 H                     0.084170
     43 H                     0.074748
     44 H                     0.071056
     45 H                     0.073304
     46 H                     0.071048
     47 H                     0.117874
     48 H                     0.092649
     49 H                     0.089207
     50 H                     0.117429
     51 H                     0.073983
     52 H                     0.092911
     53 H                     0.085954
     54 H                     0.098201
     55 H                     0.092745
     56 H                     0.091398
  ----------------------------------------
  Sum of atomic charges =    -0.000000

                    Cartesian Multipole Moments
 -----------------------------------------------------------------
    Charge (ESU x 10^10)
                 0.0000
    Dipole Moment (Debye)
         X       0.4829      Y       1.2904      Z       2.6213
       Tot       2.9613
    Quadrupole Moments (Debye-Ang)
        XX    -160.3168     XY      -0.2415     YY    -152.7741
        XZ       8.4605     YZ      -0.8612     ZZ    -157.8493

 Total job time:  218.36s(wall), 10400.37s(cpu)
        *  Thank you very much for using Q-Chem.  Have a nice day.  *
