 Q-Chem 5.0, Q-Chem, Inc., Pleasanton, CA (2017)
 Q-Chem 5.0.1 for Intel X86 EM64T Linux

User input:
--------------------------------------------------------------
$molecule
0  1
O -3.94934 -3.66094 2.70899
C -3.26408 -4.56952 2.26188
C -3.36658 -6.02376 2.66595
C -3.36795 -7.06811 1.5376
C -3.08802 -6.55426 0.14271
O -3.12 -7.58909 -0.74809
C -2.80532 -7.19002 -2.08637
C -2.86091 -8.39417 -3.02075
O -2.54447 -7.98817 -4.36162
C -3.11816 -8.72532 -5.3448
C -4.03693 -7.91494 -6.22785
C -5.49967 -8.38235 -6.24193
C -5.9005 -9.33239 -5.13132
O -5.48853 -10.47506 -4.9929
O -2.10055 -4.20727 1.64902
O -6.79222 -8.87406 -4.20922
O -2.89703 -9.91845 -5.49108
C -7.24279 -9.59964 -3.1261
C -4.22336 -6.41999 -5.86558
C -4.62375 -5.63648 -7.11427
C -6.03184 -6.1472 -7.32914
C -6.20242 -7.01627 -6.07745
O -5.40566 -6.38358 -5.10555
H -3.58561 -7.97095 -7.24413
H -5.7787 -8.883 -7.19497
H -3.32987 -5.94315 -5.40871
H -4.67711 -4.56398 -6.81779
H -3.94382 -5.73827 -7.9873
H -6.72619 -5.27794 -7.30988
H -6.18662 -6.73937 -8.25704
H -7.28389 -7.11583 -5.83878
O -3.05874 -5.38905 -0.22553
C -1.74435 -2.91026 1.33995
C -2.1259 -6.474 3.46162
C -2.45923 -7.70486 4.30376
C -2.55123 -8.7647 3.22701
C -2.1788 -7.93935 1.99158
O -1.26097 -6.99411 2.48306
H -4.26789 -6.11335 3.31364
H -4.31963 -7.64397 1.49471
H -1.67672 -2.29971 2.26554
H -1.70884 -5.66932 4.10673
H -1.57305 -7.92476 4.94125
H -3.35916 -7.60005 4.94721
H -1.76817 -9.53122 3.42171
H -3.54352 -9.25466 3.12349
H -1.80092 -8.60971 1.18862
H -2.49054 -2.46432 0.64814
H -0.75311 -2.91476 0.84217
H -7.95809 -8.98098 -2.54646
H -6.39044 -9.87213 -2.46753
H -7.76183 -10.51952 -3.47043
H -2.12954 -9.16136 -2.68663
H -3.88703 -8.82561 -2.96245
H -1.78054 -6.75557 -2.1277
H -3.54415 -6.44016 -2.45163
$end

$opt
CONSTRAINT
tors           1           2           3           4    +134.469
tors           3           4           5           6    +179.917
tors           4           5           6           7    -177.416
tors           5           6           7           8    -180.000
tors           6           7           8           9    -180.000
tors           7           8           9          10    -150.975
tors           8           9          10          11    +118.442
tors           9          10          11          12    -119.464
tors          11          12          13          14     -66.675
ENDCONSTRAINT
$end

$rem
JOBTYPE                   OPT
METHOD                    B3LYP
DFT_D                     d3_op
BASIS                     STO-3G
GEOM_OPT_MAX_CYCLES       100
GEOM_OPT_TOL_GRADIENT     300
GEOM_OPT_TOL_DISPLACEMENT 1200
GEOM_OPT_TOL_ENERGY       100
SYMMETRY                  False
THRESH                    12
SCF_CONVERGENCE           8
MAX_SUB_FILE_NUM          128
MEM_STATIC                400
MEM_TOTAL                 4000
$end
--------------------------------------------------------------

   15   -1510.1267982099      6.37E-09 Convergence criterion met
 Total energy in the final basis set = -1510.12679821
   14   -1510.1973248379      6.29E-09 Convergence criterion met
 Total energy in the final basis set = -1510.19732484
   14   -1510.2340742978      6.89E-09 Convergence criterion met
 Total energy in the final basis set = -1510.23407430
   14   -1510.2482614699      6.76E-09 Convergence criterion met
 Total energy in the final basis set = -1510.24826147
   14   -1510.2537398049      5.39E-09 Convergence criterion met
 Total energy in the final basis set = -1510.25373980
   13   -1510.2553139899      6.77E-09 Convergence criterion met
 Total energy in the final basis set = -1510.25531399
   13   -1510.2566510189      2.73E-09 Convergence criterion met
 Total energy in the final basis set = -1510.25665102
   13   -1510.2572703658      5.58E-09 Convergence criterion met
   11   -1510.2597603098      6.07E-09 Convergence criterion met
 Total energy in the final basis set = -1510.25976031
   11   -1510.2598097493      8.54E-09 Convergence criterion met
 Total energy in the final basis set = -1510.25980975
   11   -1510.2598570458      8.13E-09 Convergence criterion met
 Total energy in the final basis set = -1510.25985705
   11   -1510.2598934110      6.58E-09 Convergence criterion met
 Total energy in the final basis set = -1510.25989341
   11   -1510.2599071301      3.83E-09 Convergence criterion met
 Total energy in the final basis set = -1510.25990713
   11   -1510.2599126194      2.30E-09 Convergence criterion met
 Total energy in the final basis set = -1510.25991262

             Standard Nuclear Orientation (Angstroms)
    I     Atom           X                Y                Z
 ----------------------------------------------------------------
    1      O      -4.9186950849    -2.8640573370     1.1294335470
    2      C      -4.6321705376    -1.8335107252     0.4811070209
    3      C      -4.5218038683    -0.3750962543     1.0594748074
    4      C      -3.2507374326     0.4365894874     0.5881991676
    5      C      -2.1147982875    -0.4539291111    -0.0210213156
    6      O      -1.0374027898     0.4053294918    -0.4027300630
    7      C       0.0422876750    -0.3867968647    -1.0447886889
    8      C       1.1698674075     0.6274716695    -1.4262248115
    9      O       2.2425774219    -0.1750312478    -2.0665657627
   10      C       3.5202723928     0.4745370118    -1.8302520312
   11      C       4.4876104763    -0.4643934427    -1.0017403421
   12      C       4.9183419203     0.1840446635     0.3920631169
   13      C       4.5729390238     1.7091225593     0.5450410525
   14      O       5.0665377641     2.6594242966    -0.0994223386
   15      O      -4.5890650194    -1.7750060013    -0.9508615016
   16      O       3.4916386737     1.8627893100     1.4746838802
   17      O       3.7848965950     1.6246256976    -2.2358265568
   18      C       3.1032031987     3.2889419770     1.5654270495
   19      C       3.7271232748    -1.7554309282    -0.4946833056
   20      C       4.7637156604    -2.7648925557     0.1372671141
   21      C       5.0305953828    -2.1008734474     1.5379914518
   22      C       4.1731455218    -0.7821142416     1.4114554619
   23      O       2.9709181354    -1.2333326352     0.6700594077
   24      H       5.3786649586    -0.7009474033    -1.6122696338
   25      H       6.0145010185     0.0939669710     0.5046452567
   26      H       3.0338890495    -2.1849817519    -1.2417623354
   27      H       4.3151548696    -3.7655061976     0.2404091641
   28      H       5.6775059578    -2.8492011354    -0.4722899961
   29      H       4.6481251004    -2.7273537185     2.3595791789
   30      H       6.0974779850    -1.8929453891     1.7178911975
   31      H       3.8836219695    -0.3025810238     2.3655211088
   32      O      -2.0803037357    -1.7010126784    -0.1107106136
   33      C      -4.7156468345    -3.1375472528    -1.5116119196
   34      C      -5.6694625941     0.5246882118     0.4194137670
   35      C      -5.7177311854     1.9202639811     1.1631867487
   36      C      -4.4916736538     2.6622180016     0.5101753564
   37      C      -3.8987759335     1.5112618352    -0.3927209269
   38      O      -5.1147607540     0.8502977269    -0.9148597133
   39      H      -4.5923980474    -0.4363379748     2.1591846868
   40      H      -2.7992841437     0.9631976212     1.4500842135
   41      H      -5.6088689397    -3.6629970743    -1.1165644357
   42      H      -6.6463512635     0.0136459266     0.3168723795
   43      H      -6.6661078768     2.4395600768     0.9530209113
   44      H      -5.6118883420     1.8062242078     2.2540250573
   45      H      -4.8221002841     3.5057644772    -0.1171685644
   46      H      -3.7682388373     3.0355490820     1.2526231730
   47      H      -3.2404304804     1.8401253935    -1.2200253569
   48      H      -3.8171269646    -3.7482750374    -1.2858794766
   49      H      -4.8096063969    -3.0106997896    -2.6058594724
   50      H       2.2309870900     3.3242618705     2.2438063652
   51      H       2.8230472388     3.6973163292     0.5729262066
   52      H       3.9220330283     3.9105003689     1.9818101313
   53      H       0.7730864618     1.4044330580    -2.1189721116
   54      H       1.5307325120     1.1311465288    -0.5036102518
   55      H      -0.3335792440    -0.9104346111    -1.9504376555
   56      H       0.4499536336    -1.1477586962    -0.3434112122
 ----------------------------------------------------------------

   10   -1510.2599116732      6.31E-09 Convergence criterion met
 Total energy in the final basis set = -1510.25991167
 Final energy is   -1510.25991167320
 **  OPTIMIZATION CONVERGED  **

                    Orbital Energies (a.u.)
 --------------------------------------------------------------

 Alpha MOs
 -- Occupied --
-18.938 -18.935 -18.918 -18.910 -18.902 -18.889 -18.888 -18.880
-18.880 -18.858 -10.108 -10.103 -10.102 -10.087 -10.075 -10.072
-10.068 -10.061 -10.060 -10.060 -10.059 -10.050 -10.042 -10.041
-10.037 -10.033 -10.023 -10.022 -10.020 -10.019  -1.017  -1.015
 -1.009  -0.996  -0.973  -0.969  -0.944  -0.939  -0.936  -0.920
 -0.766  -0.762  -0.727  -0.723  -0.716  -0.707  -0.695  -0.664
 -0.649  -0.612  -0.598  -0.577  -0.549  -0.544  -0.540  -0.537
 -0.520  -0.511  -0.485  -0.474  -0.470  -0.459  -0.449  -0.441
 -0.435  -0.434  -0.430  -0.416  -0.415  -0.407  -0.403  -0.399
 -0.396  -0.379  -0.371  -0.370  -0.360  -0.358  -0.349  -0.345
 -0.342  -0.340  -0.335  -0.333  -0.330  -0.329  -0.320  -0.316
 -0.312  -0.309  -0.304  -0.300  -0.293  -0.286  -0.283  -0.281
 -0.271  -0.259  -0.257  -0.247  -0.239  -0.238  -0.233  -0.183
 -0.181  -0.168  -0.164  -0.162  -0.154  -0.150  -0.147  -0.142
 -0.137

          Ground-State Mulliken Net Atomic Charges

     Atom                 Charge (a.u.)
  ----------------------------------------
      1 O                    -0.219840
      2 C                     0.212854
      3 C                    -0.079863
      4 C                    -0.079176
      5 C                     0.214194
      6 O                    -0.175760
      7 C                    -0.045711
      8 C                    -0.043582
      9 O                    -0.192847
     10 C                     0.215824
     11 C                    -0.078580
     12 C                    -0.080908
     13 C                     0.202977
     14 O                    -0.202641
     15 O                    -0.167361
     16 O                    -0.171808
     17 O                    -0.181612
     18 C                    -0.129529
     19 C                     0.022786
     20 C                    -0.145454
     21 C                    -0.143219
     22 C                     0.022715
     23 O                    -0.195124
     24 H                     0.086558
     25 H                     0.085156
     26 H                     0.092897
     27 H                     0.078864
     28 H                     0.073740
     29 H                     0.078459
     30 H                     0.073424
     31 H                     0.090815
     32 O                    -0.207472
     33 C                    -0.127575
     34 C                     0.026350
     35 C                    -0.145053
     36 C                    -0.142274
     37 C                     0.026356
     38 O                    -0.184430
     39 H                     0.084075
     40 H                     0.084372
     41 H                     0.087307
     42 H                     0.083111
     43 H                     0.077926
     44 H                     0.073680
     45 H                     0.077754
     46 H                     0.073002
     47 H                     0.086249
     48 H                     0.089223
     49 H                     0.087281
     50 H                     0.090570
     51 H                     0.091968
     52 H                     0.089254
     53 H                     0.083819
     54 H                     0.088228
     55 H                     0.089645
     56 H                     0.098387
  ----------------------------------------
  Sum of atomic charges =     0.000000

                    Cartesian Multipole Moments
 -----------------------------------------------------------------
    Charge (ESU x 10^10)
                 0.0000
    Dipole Moment (Debye)
         X       1.2736      Y       0.7402      Z       1.7346
       Tot       2.2757
    Quadrupole Moments (Debye-Ang)
        XX    -156.5391     XY     -19.0284     YY    -161.6072
        XZ       5.5911     YZ      12.3766     ZZ    -160.1558

 Total job time:  67.06s(wall), 3189.39s(cpu)
        *  Thank you very much for using Q-Chem.  Have a nice day.  *
