 Q-Chem 5.0, Q-Chem, Inc., Pleasanton, CA (2017)
 Q-Chem 5.0.1 for Intel X86 EM64T Linux

User input:
--------------------------------------------------------------
$molecule
0  1
O -4.9186950849 -2.864057337 1.129433547
C -4.6321705376 -1.8335107252 0.4811070209
C -4.5218038683 -0.3750962543 1.0594748074
C -3.2507374326 0.4365894874 0.5881991676
C -2.1147982875 -0.4539291111 -0.0210213156
O -1.0374027898 0.4053294918 -0.402730063
C 0.042287675 -0.3867968647 -1.0447886889
C 1.1698674075 0.6274716695 -1.4262248115
O 2.2425774219 -0.1750312478 -2.0665657627
C 3.5202723928 0.4745370118 -1.8302520312
C 4.4876104763 -0.4643934427 -1.0017403421
C 4.9183419203 0.1840446635 0.3920631169
C 4.5729390238 1.7091225593 0.5450410525
O 5.0665377641 2.6594242966 -0.0994223386
O -4.5890650194 -1.7750060013 -0.9508615016
O 3.4916386737 1.86278931 1.4746838802
O 3.784896595 1.6246256976 -2.2358265568
C 3.1032031987 3.288941977 1.5654270495
C 3.7271232748 -1.7554309282 -0.4946833056
C 4.7637156604 -2.7648925557 0.1372671141
C 5.0305953828 -2.1008734474 1.5379914518
C 4.1731455218 -0.7821142416 1.4114554619
O 2.9709181354 -1.2333326352 0.6700594077
H 5.3786649586 -0.7009474033 -1.6122696338
H 6.0145010185 0.093966971 0.5046452567
H 3.0338890495 -2.1849817519 -1.2417623354
H 4.3151548696 -3.7655061976 0.2404091641
H 5.6775059578 -2.8492011354 -0.4722899961
H 4.6481251004 -2.7273537185 2.3595791789
H 6.097477985 -1.8929453891 1.7178911975
H 3.8836219695 -0.3025810238 2.3655211088
O -2.0803037357 -1.7010126784 -0.1107106136
C -4.7156468345 -3.1375472528 -1.5116119196
C -5.6694625941 0.5246882118 0.419413767
C -5.7177311854 1.9202639811 1.1631867487
C -4.4916736538 2.6622180016 0.5101753564
C -3.8987759335 1.5112618352 -0.3927209269
O -5.114760754 0.8502977269 -0.9148597133
H -4.5923980474 -0.4363379748 2.1591846868
H -2.7992841437 0.9631976212 1.4500842135
H -5.6088689397 -3.6629970743 -1.1165644357
H -6.6463512635 0.0136459266 0.3168723795
H -6.6661078768 2.4395600768 0.9530209113
H -5.611888342 1.8062242078 2.2540250573
H -4.8221002841 3.5057644772 -0.1171685644
H -3.7682388373 3.035549082 1.252623173
H -3.2404304804 1.8401253935 -1.2200253569
H -3.8171269646 -3.7482750374 -1.2858794766
H -4.8096063969 -3.0106997896 -2.6058594724
H 2.23098709 3.3242618705 2.2438063652
H 2.8230472388 3.6973163292 0.5729262066
H 3.9220330283 3.9105003689 1.9818101313
H 0.7730864618 1.404433058 -2.1189721116
H 1.530732512 1.1311465288 -0.5036102518
H -0.333579244 -0.9104346111 -1.9504376555
H 0.4499536336 -1.1477586962 -0.3434112122
$end

$rem
JOBTYPE                   OPT
METHOD                    B3LYP
DFT_D                     d3_op
BASIS                     STO-3G
GEOM_OPT_MAX_CYCLES       100
GEOM_OPT_TOL_GRADIENT     300
GEOM_OPT_TOL_DISPLACEMENT 1200
GEOM_OPT_TOL_ENERGY       100
SYMMETRY                  False
THRESH                    12
SCF_CONVERGENCE           8
MAX_SUB_FILE_NUM          128
MEM_STATIC                400
MEM_TOTAL                 4000
$end
--------------------------------------------------------------

   16   -1510.2598298537      3.80E-09 Convergence criterion met
 Total energy in the final basis set = -1510.25982985
   14   -1510.2632264347      3.10E-09 Convergence criterion met
 Total energy in the final basis set = -1510.26322643
   14   -1510.2665599764      7.26E-09 Convergence criterion met
 Total energy in the final basis set = -1510.26655998
   14   -1510.2700900801      4.91E-09 Convergence criterion met
 Total energy in the final basis set = -1510.27009008
   15   -1510.2652951179      7.52E-09 Convergence criterion met
 Total energy in the final basis set = -1510.26529512
   13   -1510.2721434038      8.34E-09 Convergence criterion met
 Total energy in the final basis set = -1510.27214340
   14   -1510.2763750082      2.08E-09 Convergence criterion met
 Total energy in the final basis set = -1510.27637501
   14   -1510.2788578886      3.02E-09 Convergence criterion met
   12   -1510.2914372904      2.86E-09 Convergence criterion met
 Total energy in the final basis set = -1510.29143729
   11   -1510.2914656872      5.26E-09 Convergence criterion met
 Total energy in the final basis set = -1510.29146569
   12   -1510.2914789224      3.07E-09 Convergence criterion met
 Total energy in the final basis set = -1510.29147892
   11   -1510.2914810160      4.03E-09 Convergence criterion met
 Total energy in the final basis set = -1510.29148102
   10   -1510.2914824510      9.14E-09 Convergence criterion met
 Total energy in the final basis set = -1510.29148245
   11   -1510.2914787710      2.32E-09 Convergence criterion met
 Total energy in the final basis set = -1510.29147877

             Standard Nuclear Orientation (Angstroms)
    I     Atom           X                Y                Z
 ----------------------------------------------------------------
    1      O      -2.3678078805     1.0436479556     2.5746543524
    2      C      -3.2304137452     0.6436663095     1.7619984084
    3      C      -3.9783089741     1.5221024040     0.6865024420
    4      C      -3.2183124376     1.6286378259    -0.7009659129
    5      C      -1.9069330386     0.7821535072    -0.7469573167
    6      O      -1.1449302500     1.1684586561    -1.8879457552
    7      C       0.1222233313     0.3942027041    -1.9618417856
    8      C       1.3370124677     1.3418854237    -1.6664414339
    9      O       2.5308656314     0.4856285436    -1.4758072831
   10      C       3.2527378929     0.8855030071    -0.3025396089
   11      C       4.4395230251    -0.1148288650    -0.0471025863
   12      C       4.3120570655    -0.8655885881     1.3489015996
   13      C       3.0318832266    -0.4873375109     2.1671789448
   14      O       2.9781383711    -0.1796650197     3.3776127239
   15      O      -3.7699549216    -0.6823775991     1.7424962733
   16      O       1.8966372588    -0.5645266162     1.3004282863
   17      O       2.9818469443     1.9051622761     0.3697307053
   18      C       0.6745222606    -0.1215225077     2.0134813297
   19      C       4.4677628375    -1.3438477954    -1.0487326521
   20      C       5.8793803540    -2.0440966174    -0.9413723099
   21      C       5.7450275204    -2.7923167712     0.4362546647
   22      C       4.2804544918    -2.3815297012     0.8627626619
   23      O       3.5466840151    -2.3194325329    -0.4204002799
   24      H       5.3800819776     0.4648670402    -0.0876350172
   25      H       5.1870623258    -0.6694191214     1.9929618716
   26      H       4.1323209538    -1.1007561076    -2.0745246151
   27      H       6.0197186728    -2.7527915705    -1.7729432350
   28      H       6.7071750705    -1.3172721115    -0.9536774748
   29      H       5.8180952685    -3.8846007398     0.3123841806
   30      H       6.4977616860    -2.4685337704     1.1727952762
   31      H       3.7798099626    -3.0779924921     1.5630529444
   32      O      -1.5726118526    -0.1227690557     0.0555808225
   33      C      -3.0339610636    -1.5393924660     2.6973472132
   34      C      -5.3592477393     0.8944802336     0.2192596083
   35      C      -6.2005317239     2.0196951401    -0.5033482477
   36      C      -5.4468349477     2.1273811699    -1.8807221770
   37      C      -4.3177949673     1.0388662929    -1.6935840856
   38      O      -4.9715574019    -0.0128150827    -0.8874054159
   39      H      -4.1141982345     2.5280497849     1.1222450398
   40      H      -2.9697179894     2.6732429192    -0.9600449087
   41      H      -3.0492557971    -1.1193364755     3.7238793097
   42      H      -5.8943465449     0.3322823425     1.0077892713
   43      H      -7.2437524092     1.6932691864    -0.6391381319
   44      H      -6.1960821909     2.9670272404     0.0588461220
   45      H      -6.1028327106     1.8584402466    -2.7240292953
   46      H      -5.0304873641     3.1308745513    -2.0638231556
   47      H      -3.9061387063     0.6181967866    -2.6317844786
   48      H      -1.9785619751    -1.6707526964     2.3835604570
   49      H      -3.5464797281    -2.5188362189     2.6871097156
   50      H      -0.1545887455    -0.1751800400     1.2755400641
   51      H       0.7809869412     0.9186046191     2.3816526228
   52      H       0.4536848562    -0.7772346360     2.8792664106
   53      H       1.5079785918     2.0362266406    -2.5166616274
   54      H       1.1677462229     1.9409910647    -0.7446292159
   55      H       0.1949163471    -0.0295723178    -2.9842065934
   56      H       0.0976557614    -0.4278366917    -1.2146718370
 ----------------------------------------------------------------

    9   -1510.2914796530      5.57E-09 Convergence criterion met
 Total energy in the final basis set = -1510.29147965
 Final energy is   -1510.29147965298
 **  OPTIMIZATION CONVERGED  **

                    Orbital Energies (a.u.)
 --------------------------------------------------------------

 Alpha MOs
 -- Occupied --
-18.951 -18.932 -18.924 -18.924 -18.898 -18.891 -18.885 -18.870
-18.866 -18.860 -10.117 -10.100 -10.092 -10.090 -10.075 -10.070
-10.066 -10.060 -10.058 -10.056 -10.055 -10.046 -10.037 -10.036
-10.036 -10.033 -10.024 -10.021 -10.019 -10.018  -1.029  -1.011
 -1.000  -0.999  -0.973  -0.967  -0.953  -0.935  -0.926  -0.926
 -0.767  -0.760  -0.730  -0.722  -0.715  -0.707  -0.695  -0.654
 -0.645  -0.619  -0.596  -0.579  -0.548  -0.543  -0.539  -0.535
 -0.518  -0.509  -0.486  -0.478  -0.466  -0.464  -0.455  -0.437
 -0.436  -0.431  -0.427  -0.412  -0.409  -0.404  -0.400  -0.400
 -0.396  -0.381  -0.374  -0.366  -0.365  -0.353  -0.349  -0.347
 -0.341  -0.337  -0.335  -0.330  -0.328  -0.328  -0.317  -0.315
 -0.307  -0.305  -0.303  -0.301  -0.291  -0.288  -0.281  -0.279
 -0.271  -0.261  -0.249  -0.245  -0.240  -0.236  -0.231  -0.194
 -0.172  -0.172  -0.166  -0.165  -0.155  -0.148  -0.142  -0.141
 -0.141

          Ground-State Mulliken Net Atomic Charges

     Atom                 Charge (a.u.)
  ----------------------------------------
      1 O                    -0.222803
      2 C                     0.213004
      3 C                    -0.081003
      4 C                    -0.078138
      5 C                     0.221378
      6 O                    -0.168650
      7 C                    -0.054265
      8 C                    -0.052379
      9 O                    -0.171837
     10 C                     0.217319
     11 C                    -0.077622
     12 C                    -0.079756
     13 C                     0.208655
     14 O                    -0.211534
     15 O                    -0.167946
     16 O                    -0.173128
     17 O                    -0.220420
     18 C                    -0.142373
     19 C                     0.024574
     20 C                    -0.144631
     21 C                    -0.143719
     22 C                     0.025802
     23 O                    -0.186879
     24 H                     0.083909
     25 H                     0.084610
     26 H                     0.090519
     27 H                     0.077189
     28 H                     0.072737
     29 H                     0.077462
     30 H                     0.073940
     31 H                     0.082893
     32 O                    -0.208903
     33 C                    -0.127463
     34 C                     0.026335
     35 C                    -0.144512
     36 C                    -0.143465
     37 C                     0.026137
     38 O                    -0.186243
     39 H                     0.083863
     40 H                     0.088783
     41 H                     0.087224
     42 H                     0.090138
     43 H                     0.078465
     44 H                     0.073975
     45 H                     0.078892
     46 H                     0.074228
     47 H                     0.084552
     48 H                     0.091308
     49 H                     0.088677
     50 H                     0.106791
     51 H                     0.088268
     52 H                     0.082351
     53 H                     0.083204
     54 H                     0.100998
     55 H                     0.090053
     56 H                     0.109437
  ----------------------------------------
  Sum of atomic charges =     0.000000

                    Cartesian Multipole Moments
 -----------------------------------------------------------------
    Charge (ESU x 10^10)
                 0.0000
    Dipole Moment (Debye)
         X      -0.3902      Y       0.5566      Z      -2.5371
       Tot       2.6266
    Quadrupole Moments (Debye-Ang)
        XX    -140.4550     XY     -12.7115     YY    -158.0042
        XZ      -5.5103     YZ      -8.7209     ZZ    -163.4109

 Total job time:  124.92s(wall), 5951.18s(cpu)
        *  Thank you very much for using Q-Chem.  Have a nice day.  *
