 Q-Chem 5.0, Q-Chem, Inc., Pleasanton, CA (2017)
 Q-Chem 5.0.1 for Intel X86 EM64T Linux

User input:
--------------------------------------------------------------
$molecule
0  1
O -2.9337936007 -1.3020207267 2.6125185007
C -2.6898546596 -1.0952354807 1.3996317159
C -3.799186958 -0.6823703186 0.3646491387
C -4.1103688764 0.8617127203 0.1355826747
C -2.9950869784 1.9055937709 0.4887328232
O -1.727793066 1.4050775008 0.070848846
C -0.6008365724 2.1323099388 0.7104615689
C 0.2540300897 0.974317895 1.3119349077
O 1.6433292508 1.417925287 1.6011363287
C 2.4834468287 0.2547698389 1.4853057787
C 3.7663312034 0.5497711233 0.6294087872
C 4.1425347299 -0.6612153431 -0.326911599
C 3.0476591968 -1.7877712746 -0.4018316481
O 3.1495937116 -2.9716791564 -0.012285769
O -1.4407107319 -1.459684984 0.7888361679
O 1.8747157289 -1.2243539319 -1.0059230981
O 2.1547455134 -0.8803755214 1.9054004148
C 0.8253575665 -2.2534774461 -1.1997762375
C 3.6148793245 1.7410521027 -0.407908828
C 5.067229327 2.2216929177 -0.7971525631
C 5.5472692136 1.0195011324 -1.6937861982
C 4.2529774156 0.1112255622 -1.7130185358
O 3.1373347455 1.0826475327 -1.6434955627
H 4.6057878259 0.7524958134 1.3212331415
H 5.0955009914 -1.1303299621 -0.0270507178
H 2.9076141574 2.528362534 -0.0829112016
H 5.0172302237 3.1589068011 -1.3741674007
H 5.7072843466 2.3825056097 0.0850954084
H 5.8019350371 1.3502548344 -2.7130990688
H 6.4151840876 0.4920756042 -1.2664517929
H 4.1448616103 -0.5362646405 -2.6046057451
O -3.1639222932 2.9972952155 1.0773405987
C -0.5921470271 -2.1769302856 1.7860558611
C -3.5873644482 -1.1878435051 -1.1313820022
C -5.0205509917 -1.455580286 -1.7342923697
C -5.5607646122 0.0179459081 -1.8570324734
C -4.28093695 0.8546348082 -1.451770895
O -3.1420564326 0.0102893844 -1.877373055
H -4.7176664173 -1.1388432148 0.7781344302
H -5.0332574242 1.1701311525 0.6572253205
H -0.5115627647 -3.2366002298 1.4762671448
H -2.8536549313 -2.0092774895 -1.2391008363
H -4.934223503 -1.9347196422 -2.7228482245
H -5.6441598168 -2.0904228816 -1.0846017873
H -5.8680721414 0.255893106 -2.8876320612
H -6.4096158994 0.2148846901 -1.1826322342
H -4.2137970523 1.8579528285 -1.9157853684
H -1.082059544 -2.1128492565 2.7768604058
H 0.4204267225 -1.716768187 1.8174672466
H -0.1242452843 -1.874274573 -0.76737752
H 1.1301978377 -3.1942201844 -0.6994826061
H 0.6931899726 -2.4334393694 -2.285251466
H -0.2370001883 0.5994784596 2.2368236887
H 0.2492396263 0.1530437135 0.5661431672
H -0.9783505719 2.8511873081 1.4675971863
H -0.0274356228 2.68263313 -0.0663629818
$end

$rem
JOBTYPE                   OPT
METHOD                    B3LYP
DFT_D                     d3_op
BASIS                     STO-3G
GEOM_OPT_MAX_CYCLES       100
GEOM_OPT_TOL_GRADIENT     300
GEOM_OPT_TOL_DISPLACEMENT 1200
GEOM_OPT_TOL_ENERGY       100
SYMMETRY                  False
THRESH                    12
SCF_CONVERGENCE           8
MAX_SUB_FILE_NUM          128
MEM_STATIC                400
MEM_TOTAL                 4000
$end
--------------------------------------------------------------

   16   -1510.2672525291      7.25E-09 Convergence criterion met
 Total energy in the final basis set = -1510.26725253
   14   -1510.2672579551      8.15E-09 Convergence criterion met
 Total energy in the final basis set = -1510.26725796
   13   -1510.2738745811      9.92E-09 Convergence criterion met
 Total energy in the final basis set = -1510.27387458
   13   -1510.2779567924      9.31E-09 Convergence criterion met
 Total energy in the final basis set = -1510.27795679
   13   -1510.2796158465      9.92E-09 Convergence criterion met
 Total energy in the final basis set = -1510.27961585
   14   -1510.2805772595      5.01E-09 Convergence criterion met
 Total energy in the final basis set = -1510.28057726
   14   -1510.2820909136      3.35E-09 Convergence criterion met
 Total energy in the final basis set = -1510.28209091
   14   -1510.2842809574      6.07E-09 Convergence criterion met
   11   -1510.3047274663      3.55E-09 Convergence criterion met
 Total energy in the final basis set = -1510.30472747
   11   -1510.3047232127      2.90E-09 Convergence criterion met
 Total energy in the final basis set = -1510.30472321
   10   -1510.3047320603      3.58E-09 Convergence criterion met
 Total energy in the final basis set = -1510.30473206
    9   -1510.3047321442      6.16E-09 Convergence criterion met
 Total energy in the final basis set = -1510.30473214
    9   -1510.3047328854      4.14E-09 Convergence criterion met
 Total energy in the final basis set = -1510.30473289
    9   -1510.3047332892      4.64E-09 Convergence criterion met
 Total energy in the final basis set = -1510.30473329

             Standard Nuclear Orientation (Angstroms)
    I     Atom           X                Y                Z
 ----------------------------------------------------------------
    1      O      -1.5779696141    -0.2828466742     1.8832161084
    2      C      -2.0890084116    -1.1433826051     1.1283142870
    3      C      -3.4534924438    -0.9860117886     0.3678043276
    4      C      -3.8558751227     0.5295323485     0.1381395412
    5      C      -2.7823093184     1.5748604458     0.6112347688
    6      O      -1.6584406771     1.5457490810    -0.2908351700
    7      C      -0.6529449121     2.5598830622     0.1076406148
    8      C       0.1843243160     2.1237698114     1.3713370022
    9      O       1.5926298865     1.8901154158     0.9617906799
   10      C       2.0163185522     0.5808291455     1.3306677569
   11      C       3.4824461195     0.3106737290     0.8317676559
   12      C       3.5575057013    -0.8257958773    -0.2776680627
   13      C       2.1627385667    -1.3700269505    -0.7369742984
   14      O       1.8337687397    -2.5658278434    -0.9015339864
   15      O      -1.5359585017    -2.4203334587     0.8455370557
   16      O       1.3101396745    -0.2483030248    -0.9563010756
   17      O       1.3298004792    -0.2095291000     2.0212741728
   18      C      -0.0261118426    -0.6655397360    -1.4462311219
   19      C       4.1435605371     1.5294005737     0.0631438079
   20      C       5.7034018458     1.2866888301     0.0008044464
   21      C       5.7926773402     0.1563643384    -1.0901514552
   22      C       4.2683000351    -0.0294632343    -1.4597309460
   23      O       3.7077669307     1.3341930934    -1.3388868134
   24      H       4.0794340996     0.0187054407     1.7152987686
   25      H       4.1663276721    -1.6831008926     0.0581565011
   26      H       3.8285250335     2.5240074252     0.4312662586
   27      H       6.2209864424     2.2029789958    -0.3247438753
   28      H       6.1163040691     0.9747341400     0.9734797638
   29      H       6.3638811479     0.4894147112    -1.9712603602
   30      H       6.2434566510    -0.7731177026    -0.7072838696
   31      H       4.0741437030    -0.4408396578    -2.4693330101
   32      O      -2.9005486056     2.4041849434     1.5379230227
   33      C      -0.2717552907    -2.6440825272     1.5954041691
   34      C      -3.4411420331    -1.5337342649    -1.1229268522
   35      C      -4.9375884708    -1.7202630911    -1.5897807275
   36      C      -5.3790169951    -0.2235290803    -1.7951664894
   37      C      -4.0430685463     0.5424720962    -1.4403913207
   38      O      -2.9812184903    -0.3719204682    -1.9177708482
   39      H      -4.2256816577    -1.5075894369     0.9638103077
   40      H      -4.7949451532     0.7740008649     0.6647134887
   41      H       0.3363977937    -3.3288230470     0.9747909764
   42      H      -2.7765589669    -2.4051345856    -1.2776642662
   43      H      -4.9755289813    -2.2855341759    -2.5345930809
   44      H      -5.5471897596    -2.2467655391    -0.8382755579
   45      H      -5.6700030402    -0.0264069277    -2.8391497040
   46      H      -6.2117352582     0.0685960317    -1.1356078091
   47      H      -3.9318253953     1.5400508708    -1.9072633399
   48      H      -0.4955466789    -3.1245218885     2.5690423536
   49      H       0.2837719771    -1.6920030391     1.7695801207
   50      H      -0.7558033668     0.1005083389    -1.0980464154
   51      H      -0.2975507897    -1.6633428118    -1.0517638107
   52      H      -0.0264372896    -0.7061866049    -2.5537013714
   53      H       0.1753166657     2.9276822637     2.1358920104
   54      H      -0.2366342158     1.1859434495     1.8071212498
   55      H      -1.1528622688     3.5321755390     0.2993646447
   56      H       0.0270625931     2.6563161329    -0.7634805774
 ----------------------------------------------------------------

    8   -1510.3047333377      9.07E-09 Convergence criterion met
 Total energy in the final basis set = -1510.30473334
 Final energy is   -1510.30473333769
 **  OPTIMIZATION CONVERGED  **

                    Orbital Energies (a.u.)
 --------------------------------------------------------------

 Alpha MOs
 -- Occupied --
-18.938 -18.932 -18.932 -18.925 -18.891 -18.886 -18.881 -18.872
-18.871 -18.867 -10.106 -10.103 -10.099 -10.092 -10.067 -10.063
-10.061 -10.059 -10.056 -10.054 -10.041 -10.041 -10.038 -10.037
-10.034 -10.030 -10.022 -10.021 -10.019 -10.018  -1.017  -1.011
 -1.006  -1.000  -0.973  -0.968  -0.939  -0.936  -0.931  -0.928
 -0.765  -0.761  -0.726  -0.722  -0.712  -0.706  -0.690  -0.654
 -0.643  -0.612  -0.596  -0.578  -0.547  -0.543  -0.539  -0.535
 -0.514  -0.510  -0.481  -0.475  -0.467  -0.465  -0.447  -0.436
 -0.433  -0.431  -0.425  -0.415  -0.409  -0.404  -0.397  -0.394
 -0.387  -0.377  -0.371  -0.365  -0.359  -0.358  -0.353  -0.346
 -0.341  -0.334  -0.332  -0.328  -0.326  -0.322  -0.318  -0.313
 -0.307  -0.306  -0.301  -0.298  -0.295  -0.291  -0.283  -0.279
 -0.271  -0.258  -0.249  -0.238  -0.236  -0.234  -0.229  -0.187
 -0.175  -0.168  -0.162  -0.160  -0.156  -0.149  -0.147  -0.144
 -0.141

          Ground-State Mulliken Net Atomic Charges

     Atom                 Charge (a.u.)
  ----------------------------------------
      1 O                    -0.212534
      2 C                     0.218017
      3 C                    -0.078941
      4 C                    -0.081030
      5 C                     0.214717
      6 O                    -0.174235
      7 C                    -0.049868
      8 C                    -0.064223
      9 O                    -0.168451
     10 C                     0.223851
     11 C                    -0.077853
     12 C                    -0.079556
     13 C                     0.207477
     14 O                    -0.218660
     15 O                    -0.169970
     16 O                    -0.172353
     17 O                    -0.225848
     18 C                    -0.150555
     19 C                     0.025174
     20 C                    -0.144305
     21 C                    -0.144028
     22 C                     0.026022
     23 O                    -0.185805
     24 H                     0.083841
     25 H                     0.083856
     26 H                     0.090764
     27 H                     0.077513
     28 H                     0.072761
     29 H                     0.077713
     30 H                     0.073791
     31 H                     0.082703
     32 O                    -0.212674
     33 C                    -0.149395
     34 C                     0.023700
     35 C                    -0.143416
     36 C                    -0.144270
     37 C                     0.026121
     38 O                    -0.188654
     39 H                     0.086458
     40 H                     0.085522
     41 H                     0.092606
     42 H                     0.092108
     43 H                     0.078819
     44 H                     0.073977
     45 H                     0.078491
     46 H                     0.074152
     47 H                     0.084413
     48 H                     0.079545
     49 H                     0.120948
     50 H                     0.114951
     51 H                     0.088927
     52 H                     0.079409
     53 H                     0.084969
     54 H                     0.122579
     55 H                     0.090216
     56 H                     0.100510
  ----------------------------------------
  Sum of atomic charges =    -0.000000

                    Cartesian Multipole Moments
 -----------------------------------------------------------------
    Charge (ESU x 10^10)
                -0.0000
    Dipole Moment (Debye)
         X      -0.1586      Y      -0.2194      Z      -0.2611
       Tot       0.3761
    Quadrupole Moments (Debye-Ang)
        XX    -134.9607     XY       4.3336     YY    -162.0461
        XZ       6.4585     YZ      -2.4127     ZZ    -164.4239

 Total job time:  139.02s(wall), 6632.13s(cpu)
        *  Thank you very much for using Q-Chem.  Have a nice day.  *
