 Q-Chem 5.0, Q-Chem, Inc., Pleasanton, CA (2017)
 Q-Chem 5.0.1 for Intel X86 EM64T Linux

User input:
--------------------------------------------------------------
$molecule
0  1
O -3.94934 -3.66094 2.70899
C -3.26408 -4.56952 2.26188
C -3.36658 -6.02376 2.66595
C -4.34104 -6.90721 1.86984
C -4.97192 -6.28176 0.64554
O -4.04303 -5.54069 -0.02782
C -4.62331 -4.62482 -0.96254
C -4.08492 -3.21803 -0.72335
O -4.29901 -2.40725 -1.8894
C -3.4033 -1.40625 -2.07607
C -2.88222 -1.33944 -3.49193
C -1.38502 -1.02131 -3.61634
C -0.57026 -1.1697 -2.34715
O -0.01078 -0.25914 -1.7535
O -2.10568 -4.20023 1.64633
O -0.43382 -2.42987 -1.85389
O -3.22435 -0.52828 -1.24397
C 0.56991 -2.80861 -0.98476
C -2.95313 -2.6345 -4.33801
C -2.96672 -2.27451 -5.8241
C -1.54049 -1.79754 -6.01776
C -0.95984 -2.09452 -4.63131
O -1.68251 -3.22301 -4.19535
H -3.48856 -0.54787 -3.98769
H -1.22786 0.02156 -3.97203
H -3.82309 -3.28567 -4.1091
H -3.09933 -3.22633 -6.38728
H -3.75457 -1.55548 -6.1357
H -1.05869 -2.43563 -6.79149
H -1.43034 -0.72423 -6.28526
H 0.14559 -2.20845 -4.68086
O -6.1779 -6.29643 0.43019
C -1.52743 -2.9428 1.73646
C -2.05339 -6.81491 2.44078
C -2.03231 -8.07338 3.31134
C -3.02306 -8.94325 2.5712
C -3.38201 -8.0208 1.40502
O -2.18358 -7.33421 1.14279
H -3.57823 -6.02615 3.75851
H -5.1605 -7.33331 2.49099
H -0.48296 -3.05293 2.09332
H -1.13646 -6.21966 2.64342
H -1.02359 -8.53682 3.22332
H -2.2632 -7.89296 4.38327
H -2.48555 -9.83706 2.18241
H -3.91017 -9.26322 3.15937
H -3.79815 -8.61449 0.56077
H -2.05499 -2.26948 2.44477
H -1.52565 -2.45073 0.74951
H 0.42451 -3.87066 -0.69905
H 0.56851 -2.17707 -0.07295
H 1.55632 -2.70513 -1.48475
H -4.50218 -2.74754 0.19172
H -2.99137 -3.361 -0.61218
H -5.73358 -4.57864 -1.01275
H -4.26908 -4.94728 -1.96571
$end

$opt
CONSTRAINT
tors           1           2           3           4     +89.736
tors           3           4           5           6     +40.620
tors           4           5           6           7    -163.351
tors           5           6           7           8    +127.690
tors           6           7           8           9    +160.958
tors           7           8           9          10    -151.490
tors           8           9          10          11    +133.009
tors           9          10          11          12    -140.428
tors          11          12          13          14    -114.867
ENDCONSTRAINT
$end

$rem
JOBTYPE                   OPT
METHOD                    B3LYP
DFT_D                     d3_op
BASIS                     STO-3G
GEOM_OPT_MAX_CYCLES       100
GEOM_OPT_TOL_GRADIENT     300
GEOM_OPT_TOL_DISPLACEMENT 1200
GEOM_OPT_TOL_ENERGY       100
SYMMETRY                  False
THRESH                    12
SCF_CONVERGENCE           8
MAX_SUB_FILE_NUM          128
MEM_STATIC                400
MEM_TOTAL                 4000
$end
--------------------------------------------------------------

   15   -1510.1318712578      6.69E-09 Convergence criterion met
 Total energy in the final basis set = -1510.13187126
   14   -1510.2006968087      6.16E-09 Convergence criterion met
 Total energy in the final basis set = -1510.20069681
   14   -1510.2350854499      8.98E-09 Convergence criterion met
 Total energy in the final basis set = -1510.23508545
   14   -1510.2474838744      4.94E-09 Convergence criterion met
 Total energy in the final basis set = -1510.24748387
   14   -1510.2537813493      5.50E-09 Convergence criterion met
 Total energy in the final basis set = -1510.25378135
   14   -1510.2571691881      5.21E-09 Convergence criterion met
 Total energy in the final basis set = -1510.25716919
   14   -1510.2609092323      3.64E-09 Convergence criterion met
 Total energy in the final basis set = -1510.26090923
   13   -1510.2618843358      4.77E-09 Convergence criterion met
   11   -1510.2672830044      3.15E-09 Convergence criterion met
 Total energy in the final basis set = -1510.26728300
   11   -1510.2672922867      5.12E-09 Convergence criterion met
 Total energy in the final basis set = -1510.26729229
   11   -1510.2672964674      3.91E-09 Convergence criterion met
 Total energy in the final basis set = -1510.26729647
   10   -1510.2673012147      9.29E-09 Convergence criterion met
 Total energy in the final basis set = -1510.26730121
    9   -1510.2673049186      4.99E-09 Convergence criterion met
 Total energy in the final basis set = -1510.26730492
    9   -1510.2673077598      6.01E-09 Convergence criterion met
 Total energy in the final basis set = -1510.26730776

             Standard Nuclear Orientation (Angstroms)
    I     Atom           X                Y                Z
 ----------------------------------------------------------------
    1      O      -2.9337936007    -1.3020207267     2.6125185007
    2      C      -2.6898546596    -1.0952354807     1.3996317159
    3      C      -3.7991869580    -0.6823703186     0.3646491387
    4      C      -4.1103688764     0.8617127203     0.1355826747
    5      C      -2.9950869784     1.9055937709     0.4887328232
    6      O      -1.7277930660     1.4050775008     0.0708488460
    7      C      -0.6008365724     2.1323099388     0.7104615689
    8      C       0.2540300897     0.9743178950     1.3119349077
    9      O       1.6433292508     1.4179252870     1.6011363287
   10      C       2.4834468287     0.2547698389     1.4853057787
   11      C       3.7663312034     0.5497711233     0.6294087872
   12      C       4.1425347299    -0.6612153431    -0.3269115990
   13      C       3.0476591968    -1.7877712746    -0.4018316481
   14      O       3.1495937116    -2.9716791564    -0.0122857690
   15      O      -1.4407107319    -1.4596849840     0.7888361679
   16      O       1.8747157289    -1.2243539319    -1.0059230981
   17      O       2.1547455134    -0.8803755214     1.9054004148
   18      C       0.8253575665    -2.2534774461    -1.1997762375
   19      C       3.6148793245     1.7410521027    -0.4079088280
   20      C       5.0672293270     2.2216929177    -0.7971525631
   21      C       5.5472692136     1.0195011324    -1.6937861982
   22      C       4.2529774156     0.1112255622    -1.7130185358
   23      O       3.1373347455     1.0826475327    -1.6434955627
   24      H       4.6057878259     0.7524958134     1.3212331415
   25      H       5.0955009914    -1.1303299621    -0.0270507178
   26      H       2.9076141574     2.5283625340    -0.0829112016
   27      H       5.0172302237     3.1589068011    -1.3741674007
   28      H       5.7072843466     2.3825056097     0.0850954084
   29      H       5.8019350371     1.3502548344    -2.7130990688
   30      H       6.4151840876     0.4920756042    -1.2664517929
   31      H       4.1448616103    -0.5362646405    -2.6046057451
   32      O      -3.1639222932     2.9972952155     1.0773405987
   33      C      -0.5921470271    -2.1769302856     1.7860558611
   34      C      -3.5873644482    -1.1878435051    -1.1313820022
   35      C      -5.0205509917    -1.4555802860    -1.7342923697
   36      C      -5.5607646122     0.0179459081    -1.8570324734
   37      C      -4.2809369500     0.8546348082    -1.4517708950
   38      O      -3.1420564326     0.0102893844    -1.8773730550
   39      H      -4.7176664173    -1.1388432148     0.7781344302
   40      H      -5.0332574242     1.1701311525     0.6572253205
   41      H      -0.5115627647    -3.2366002298     1.4762671448
   42      H      -2.8536549313    -2.0092774895    -1.2391008363
   43      H      -4.9342235030    -1.9347196422    -2.7228482245
   44      H      -5.6441598168    -2.0904228816    -1.0846017873
   45      H      -5.8680721414     0.2558931060    -2.8876320612
   46      H      -6.4096158994     0.2148846901    -1.1826322342
   47      H      -4.2137970523     1.8579528285    -1.9157853684
   48      H      -1.0820595440    -2.1128492565     2.7768604058
   49      H       0.4204267225    -1.7167681870     1.8174672466
   50      H      -0.1242452843    -1.8742745730    -0.7673775200
   51      H       1.1301978377    -3.1942201844    -0.6994826061
   52      H       0.6931899726    -2.4334393694    -2.2852514660
   53      H      -0.2370001883     0.5994784596     2.2368236887
   54      H       0.2492396263     0.1530437135     0.5661431672
   55      H      -0.9783505719     2.8511873081     1.4675971863
   56      H      -0.0274356228     2.6826331300    -0.0663629818
 ----------------------------------------------------------------

    9   -1510.2673077838      2.20E-09 Convergence criterion met
 Total energy in the final basis set = -1510.26730778
 Final energy is   -1510.26730778378
 **  OPTIMIZATION CONVERGED  **

                    Orbital Energies (a.u.)
 --------------------------------------------------------------

 Alpha MOs
 -- Occupied --
-18.936 -18.935 -18.931 -18.923 -18.900 -18.891 -18.889 -18.877
-18.877 -18.870 -10.115 -10.103 -10.102 -10.094 -10.073 -10.071
-10.063 -10.062 -10.062 -10.060 -10.043 -10.043 -10.043 -10.042
-10.039 -10.038 -10.023 -10.022 -10.022 -10.021  -1.021  -1.015
 -1.010  -1.002  -0.973  -0.971  -0.948  -0.938  -0.935  -0.929
 -0.766  -0.764  -0.730  -0.724  -0.714  -0.708  -0.699  -0.655
 -0.649  -0.613  -0.600  -0.582  -0.548  -0.546  -0.540  -0.539
 -0.522  -0.512  -0.491  -0.476  -0.471  -0.465  -0.454  -0.438
 -0.436  -0.433  -0.426  -0.418  -0.413  -0.411  -0.404  -0.396
 -0.392  -0.382  -0.369  -0.368  -0.366  -0.360  -0.351  -0.347
 -0.345  -0.342  -0.334  -0.332  -0.331  -0.328  -0.324  -0.316
 -0.312  -0.308  -0.307  -0.305  -0.297  -0.286  -0.285  -0.280
 -0.276  -0.258  -0.251  -0.245  -0.239  -0.236  -0.235  -0.183
 -0.179  -0.172  -0.170  -0.164  -0.160  -0.154  -0.150  -0.145
 -0.144

          Ground-State Mulliken Net Atomic Charges

     Atom                 Charge (a.u.)
  ----------------------------------------
      1 O                    -0.214481
      2 C                     0.205717
      3 C                    -0.078337
      4 C                    -0.077272
      5 C                     0.208054
      6 O                    -0.167343
      7 C                    -0.049285
      8 C                    -0.050817
      9 O                    -0.179982
     10 C                     0.223852
     11 C                    -0.078710
     12 C                    -0.078547
     13 C                     0.209412
     14 O                    -0.213295
     15 O                    -0.172219
     16 O                    -0.173965
     17 O                    -0.200485
     18 C                    -0.144659
     19 C                     0.023685
     20 C                    -0.143226
     21 C                    -0.144877
     22 C                     0.026939
     23 O                    -0.185373
     24 H                     0.085996
     25 H                     0.085597
     26 H                     0.090729
     27 H                     0.078435
     28 H                     0.073285
     29 H                     0.078413
     30 H                     0.073858
     31 H                     0.084073
     32 O                    -0.213551
     33 C                    -0.154686
     34 C                     0.025379
     35 C                    -0.142462
     36 C                    -0.145224
     37 C                     0.025800
     38 O                    -0.184626
     39 H                     0.087035
     40 H                     0.087879
     41 H                     0.080011
     42 H                     0.087858
     43 H                     0.078455
     44 H                     0.073902
     45 H                     0.078943
     46 H                     0.074516
     47 H                     0.083294
     48 H                     0.098777
     49 H                     0.106982
     50 H                     0.100077
     51 H                     0.095106
     52 H                     0.080700
     53 H                     0.083324
     54 H                     0.106690
     55 H                     0.099302
     56 H                     0.091349
  ----------------------------------------
  Sum of atomic charges =    -0.000000

                    Cartesian Multipole Moments
 -----------------------------------------------------------------
    Charge (ESU x 10^10)
                -0.0000
    Dipole Moment (Debye)
         X       0.2447      Y       0.2754      Z      -1.3383
       Tot       1.3881
    Quadrupole Moments (Debye-Ang)
        XX    -138.2549     XY      11.9197     YY    -165.5653
        XZ       4.6822     YZ       2.9555     ZZ    -166.4217

 Total job time:  109.99s(wall), 5246.13s(cpu)
        *  Thank you very much for using Q-Chem.  Have a nice day.  *
