 Q-Chem 5.0, Q-Chem, Inc., Pleasanton, CA (2017)
 Q-Chem 5.0.1 for Intel X86 EM64T Linux

User input:
--------------------------------------------------------------
$molecule
0  1
O -3.94934 -3.66094 2.70899
C -3.26408 -4.56952 2.26188
C -3.36658 -6.02376 2.66595
C -4.77435 -6.63902 2.7251
C -5.90688 -5.78326 2.20249
O -6.97331 -6.57251 1.87813
C -8.06775 -5.83842 1.31905
C -9.21721 -6.78292 0.98317
O -10.31345 -6.04091 0.4259
C -11.54895 -6.51586 0.72106
C -12.65738 -5.69284 0.10896
C -13.89187 -5.50313 1.00247
C -13.70526 -5.84161 2.46784
O -14.37872 -6.64087 3.10202
O -2.42227 -4.27591 1.23395
O -12.69367 -5.19908 3.11351
O -11.74942 -7.6431 1.15806
C -12.36157 -5.39704 4.43701
C -12.32915 -4.21596 -0.22092
C -13.27768 -3.70949 -1.30833
C -14.5767 -3.61458 -0.53381
C -14.08712 -3.98276 0.87022
O -12.76548 -3.49748 0.9065
H -12.93268 -6.22192 -0.83131
H -14.7692 -6.0848 0.64132
H -11.27981 -4.03837 -0.53842
H -12.95024 -2.67869 -1.57455
H -13.31806 -4.32826 -2.23047
H -14.92531 -2.55822 -0.56072
H -15.3873 -4.29246 -0.87881
H -14.77696 -3.58021 1.64473
O -5.89014 -4.60633 1.88546
C -2.24664 -3.01551 0.70171
C -2.64153 -6.99628 1.7167
C -2.32617 -8.3048 2.44179
C -3.70106 -8.92717 2.50398
C -4.52662 -7.85574 1.78817
O -3.64577 -7.36296 0.8081
H -2.9041 -6.0592 3.67739
H -5.07282 -6.99047 3.73774
H -1.86904 -2.32023 1.48164
H -1.70496 -6.58797 1.28023
H -1.68531 -8.92963 1.77942
H -1.82184 -8.16469 3.4222
H -3.6935 -9.85211 1.88416
H -4.07471 -9.16344 3.5236
H -5.45404 -8.32893 1.40129
H -3.20704 -2.63579 0.29205
H -1.50372 -3.06829 -0.12032
H -11.50183 -4.74609 4.69688
H -12.07091 -6.45638 4.60328
H -13.22061 -5.13469 5.09075
H -8.8673 -7.53123 0.23965
H -9.49517 -7.3081 1.92648
H -7.7567 -5.32698 0.37929
H -8.43772 -5.08466 2.05156
$end

$opt
CONSTRAINT
tors           1           2           3           4     +47.045
tors           3           4           5           6    +158.929
tors           4           5           6           7    -177.416
tors           5           6           7           8    -180.000
tors           6           7           8           9    +179.856
tors           7           8           9          10    -146.651
tors           8           9          10          11    +179.912
tors           9          10          11          12    -141.268
tors          11          12          13          14    -124.101
ENDCONSTRAINT
$end

$rem
JOBTYPE                   OPT
METHOD                    B3LYP
DFT_D                     d3_op
BASIS                     STO-3G
GEOM_OPT_MAX_CYCLES       100
GEOM_OPT_TOL_GRADIENT     300
GEOM_OPT_TOL_DISPLACEMENT 1200
GEOM_OPT_TOL_ENERGY       100
SYMMETRY                  False
THRESH                    12
SCF_CONVERGENCE           8
MAX_SUB_FILE_NUM          128
MEM_STATIC                400
MEM_TOTAL                 4000
$end
--------------------------------------------------------------

   15   -1510.1410077425      6.58E-09 Convergence criterion met
 Total energy in the final basis set = -1510.14100774
   14   -1510.2112733686      6.59E-09 Convergence criterion met
 Total energy in the final basis set = -1510.21127337
   14   -1510.2474857009      8.12E-09 Convergence criterion met
 Total energy in the final basis set = -1510.24748570
   14   -1510.2644329000      8.45E-09 Convergence criterion met
 Total energy in the final basis set = -1510.26443290
   14   -1510.2706972574      3.92E-09 Convergence criterion met
 Total energy in the final basis set = -1510.27069726
   13   -1510.2727748227      6.22E-09 Convergence criterion met
 Total energy in the final basis set = -1510.27277482
   12   -1510.2736660034      9.50E-09 Convergence criterion met
 Total energy in the final basis set = -1510.27366600
   12   -1510.2740401010      6.33E-09 Convergence criterion met
   12   -1510.2749016395      7.72E-09 Convergence criterion met
 Total energy in the final basis set = -1510.27490164
   12   -1510.2750539942      5.92E-09 Convergence criterion met
 Total energy in the final basis set = -1510.27505399
   12   -1510.2751059060      5.58E-09 Convergence criterion met
 Total energy in the final basis set = -1510.27510591
   12   -1510.2751260171      2.76E-09 Convergence criterion met
 Total energy in the final basis set = -1510.27512602
   12   -1510.2751309001      2.75E-09 Convergence criterion met
 Total energy in the final basis set = -1510.27513090
   11   -1510.2751328437      9.31E-09 Convergence criterion met
 Total energy in the final basis set = -1510.27513284

             Standard Nuclear Orientation (Angstroms)
    I     Atom           X                Y                Z
 ----------------------------------------------------------------
    1      O      -4.5634392219    -1.7031158949     2.1636842304
    2      C      -5.1443286014    -1.3007683391     1.1332998142
    3      C      -5.2195705544     0.1797989662     0.6087784236
    4      C      -3.8521059770     0.9742109023     0.5856676084
    5      C      -2.5916980445     0.0480998051     0.3756945839
    6      O      -1.5192511920     0.8644670629    -0.1158772994
    7      C      -0.3289070118     0.0214569333    -0.3873573606
    8      C       0.7824180581     0.9848336547    -0.9151529237
    9      O       1.9806198386     0.1535326949    -1.1873236563
   10      C       3.1764722962     0.8909168441    -0.9229059097
   11      C       4.4249896106    -0.0151983652    -1.2177517894
   12      C       5.5952342105     0.1930790933    -0.1660737482
   13      C       5.2325560341     1.1725483071     1.0032443897
   14      O       5.8522542008     2.2036266339     1.3417329630
   15      O      -5.8811117091    -2.1540048623     0.2493725788
   16      O       4.0907876771     0.6492470848     1.6954531073
   17      O       3.1947758358     2.0807955588    -0.5357134512
   18      C       3.6609694422     1.5953048360     2.7478107519
   19      C       4.1488187668    -1.5707880612    -1.0708625024
   20      C       5.3181292580    -2.3463756120    -1.7956175107
   21      C       6.4963872037    -2.1407599644    -0.7716484807
   22      C       5.7782703442    -1.2991280643     0.3561737201
   23      O       4.3977210640    -1.8320780050     0.3647717136
   24      H       4.7748833911     0.2283250903    -2.2386492105
   25      H       6.5111657407     0.5725015707    -0.6511261543
   26      H       3.1217769321    -1.8741421510    -1.3501879075
   27      H       5.0620873727    -3.4117215932    -1.9097065758
   28      H       5.5400531645    -1.9277648978    -2.7901977174
   29      H       6.8519717496    -3.1014620489    -0.3664511535
   30      H       7.3522252127    -1.6032509570    -1.2104079377
   31      H       6.2297769933    -1.3798962668     1.3638888944
   32      O      -2.5025253896    -1.1916028086     0.4944495050
   33      C      -5.8130971466    -3.5529437874     0.7288521242
   34      C      -5.7489284091     0.4174069609    -0.8725745191
   35      C      -6.4882328985     1.8102507943    -0.8703308828
   36      C      -5.2655935477     2.7815118638    -0.6622018559
   37      C      -4.0460448904     1.7811154965    -0.7702528463
   38      O      -4.5320857136     0.7041032613    -1.6682991901
   39      H      -5.8990575830     0.6972092569     1.3130804691
   40      H      -3.7148569184     1.6191442661     1.4723928836
   41      H      -6.2826975901    -3.6671173099     1.7274369558
   42      H      -6.3095394343    -0.4347014533    -1.3019699865
   43      H      -6.9803332949     1.9857080727    -1.8405723234
   44      H      -7.2413640148     1.8895217438    -0.0701801545
   45      H      -5.2114092559     3.5452263187    -1.4541356925
   46      H      -5.2920349247     3.2901883598     0.3151169028
   47      H      -3.1053991693     2.2162437267    -1.1582434580
   48      H      -4.7648539727    -3.9098724769     0.7906273298
   49      H      -6.3689656620    -4.1569428498    -0.0117859381
   50      H       2.8545555823     1.0863454949     3.3072617362
   51      H       3.2690320520     2.5336819306     2.3033985312
   52      H       4.4915284428     1.8501766186     3.4367532248
   53      H       0.4461897364     1.4814578261    -1.8515000554
   54      H       1.0273433966     1.7712965655    -0.1697182066
   55      H      -0.5615345896    -0.7569674514    -1.1464970549
   56      H       0.0167440360    -0.4930204507     0.5357420320
 ----------------------------------------------------------------

   11   -1510.2751325658      5.55E-09 Convergence criterion met
 Total energy in the final basis set = -1510.27513257
 Final energy is   -1510.27513256583
 **  OPTIMIZATION CONVERGED  **

                    Orbital Energies (a.u.)
 --------------------------------------------------------------

 Alpha MOs
 -- Occupied --
-18.940 -18.934 -18.929 -18.926 -18.887 -18.885 -18.880 -18.878
-18.868 -18.866 -10.105 -10.101 -10.094 -10.093 -10.076 -10.075
-10.060 -10.059 -10.058 -10.058 -10.057 -10.056 -10.040 -10.040
-10.035 -10.034 -10.021 -10.020 -10.019 -10.019  -1.019  -1.014
 -1.004  -1.002  -0.969  -0.969  -0.943  -0.938  -0.929  -0.928
 -0.763  -0.762  -0.730  -0.722  -0.715  -0.706  -0.695  -0.657
 -0.655  -0.615  -0.596  -0.578  -0.545  -0.543  -0.537  -0.537
 -0.519  -0.510  -0.486  -0.471  -0.466  -0.461  -0.453  -0.443
 -0.435  -0.433  -0.432  -0.411  -0.407  -0.406  -0.405  -0.403
 -0.393  -0.380  -0.370  -0.368  -0.363  -0.358  -0.349  -0.347
 -0.340  -0.338  -0.335  -0.329  -0.329  -0.321  -0.318  -0.311
 -0.309  -0.307  -0.303  -0.298  -0.295  -0.288  -0.281  -0.275
 -0.274  -0.261  -0.254  -0.247  -0.245  -0.233  -0.233  -0.183
 -0.179  -0.173  -0.168  -0.161  -0.155  -0.146  -0.145  -0.142
 -0.140

          Ground-State Mulliken Net Atomic Charges

     Atom                 Charge (a.u.)
  ----------------------------------------
      1 O                    -0.211453
      2 C                     0.213353
      3 C                    -0.081439
      4 C                    -0.075244
      5 C                     0.213511
      6 O                    -0.176830
      7 C                    -0.045514
      8 C                    -0.048501
      9 O                    -0.171869
     10 C                     0.216360
     11 C                    -0.077581
     12 C                    -0.079934
     13 C                     0.211419
     14 O                    -0.212776
     15 O                    -0.172124
     16 O                    -0.170733
     17 O                    -0.216009
     18 C                    -0.128928
     19 C                     0.023747
     20 C                    -0.144022
     21 C                    -0.144146
     22 C                     0.026353
     23 O                    -0.186477
     24 H                     0.084865
     25 H                     0.084578
     26 H                     0.092258
     27 H                     0.078071
     28 H                     0.072723
     29 H                     0.077993
     30 H                     0.073800
     31 H                     0.083262
     32 O                    -0.205676
     33 C                    -0.127779
     34 C                     0.022047
     35 C                    -0.141864
     36 C                    -0.145979
     37 C                     0.022609
     38 O                    -0.194147
     39 H                     0.081683
     40 H                     0.086949
     41 H                     0.086861
     42 H                     0.093450
     43 H                     0.077420
     44 H                     0.072878
     45 H                     0.078029
     46 H                     0.073291
     47 H                     0.089412
     48 H                     0.093688
     49 H                     0.088707
     50 H                     0.088783
     51 H                     0.089542
     52 H                     0.089359
     53 H                     0.086494
     54 H                     0.100349
     55 H                     0.092210
     56 H                     0.092973
  ----------------------------------------
  Sum of atomic charges =    -0.000000

                    Cartesian Multipole Moments
 -----------------------------------------------------------------
    Charge (ESU x 10^10)
                 0.0000
    Dipole Moment (Debye)
         X      -1.1621      Y       0.0475      Z      -1.1275
       Tot       1.6198
    Quadrupole Moments (Debye-Ang)
        XX    -145.0336     XY     -14.2589     YY    -160.7508
        XZ      -8.3749     YZ       3.8451     ZZ    -158.7156

 Total job time:  47.64s(wall), 2264.36s(cpu)
        *  Thank you very much for using Q-Chem.  Have a nice day.  *
