 Q-Chem 5.0, Q-Chem, Inc., Pleasanton, CA (2017)
 Q-Chem 5.0.1 for Intel X86 EM64T Linux

User input:
--------------------------------------------------------------
$molecule
0  1
O -4.5634392219 -1.7031158949 2.1636842304
C -5.1443286014 -1.3007683391 1.1332998142
C -5.2195705544 0.1797989662 0.6087784236
C -3.852105977 0.9742109023 0.5856676084
C -2.5916980445 0.0480998051 0.3756945839
O -1.519251192 0.8644670629 -0.1158772994
C -0.3289070118 0.0214569333 -0.3873573606
C 0.7824180581 0.9848336547 -0.9151529237
O 1.9806198386 0.1535326949 -1.1873236563
C 3.1764722962 0.8909168441 -0.9229059097
C 4.4249896106 -0.0151983652 -1.2177517894
C 5.5952342105 0.1930790933 -0.1660737482
C 5.2325560341 1.1725483071 1.0032443897
O 5.8522542008 2.2036266339 1.341732963
O -5.8811117091 -2.1540048623 0.2493725788
O 4.0907876771 0.6492470848 1.6954531073
O 3.1947758358 2.0807955588 -0.5357134512
C 3.6609694422 1.595304836 2.7478107519
C 4.1488187668 -1.5707880612 -1.0708625024
C 5.318129258 -2.346375612 -1.7956175107
C 6.4963872037 -2.1407599644 -0.7716484807
C 5.7782703442 -1.2991280643 0.3561737201
O 4.397721064 -1.832078005 0.3647717136
H 4.7748833911 0.2283250903 -2.2386492105
H 6.5111657407 0.5725015707 -0.6511261543
H 3.1217769321 -1.874142151 -1.3501879075
H 5.0620873727 -3.4117215932 -1.9097065758
H 5.5400531645 -1.9277648978 -2.7901977174
H 6.8519717496 -3.1014620489 -0.3664511535
H 7.3522252127 -1.603250957 -1.2104079377
H 6.2297769933 -1.3798962668 1.3638888944
O -2.5025253896 -1.1916028086 0.494449505
C -5.8130971466 -3.5529437874 0.7288521242
C -5.7489284091 0.4174069609 -0.8725745191
C -6.4882328985 1.8102507943 -0.8703308828
C -5.2655935477 2.7815118638 -0.6622018559
C -4.0460448904 1.7811154965 -0.7702528463
O -4.5320857136 0.7041032613 -1.6682991901
H -5.899057583 0.6972092569 1.3130804691
H -3.7148569184 1.6191442661 1.4723928836
H -6.2826975901 -3.6671173099 1.7274369558
H -6.3095394343 -0.4347014533 -1.3019699865
H -6.9803332949 1.9857080727 -1.8405723234
H -7.2413640148 1.8895217438 -0.0701801545
H -5.2114092559 3.5452263187 -1.4541356925
H -5.2920349247 3.2901883598 0.3151169028
H -3.1053991693 2.2162437267 -1.158243458
H -4.7648539727 -3.9098724769 0.7906273298
H -6.368965662 -4.1569428498 -0.0117859381
H 2.8545555823 1.0863454949 3.3072617362
H 3.269032052 2.5336819306 2.3033985312
H 4.4915284428 1.8501766186 3.4367532248
H 0.4461897364 1.4814578261 -1.8515000554
H 1.0273433966 1.7712965655 -0.1697182066
H -0.5615345896 -0.7569674514 -1.1464970549
H 0.016744036 -0.4930204507 0.535742032
$end

$rem
JOBTYPE                   OPT
METHOD                    B3LYP
DFT_D                     d3_op
BASIS                     STO-3G
GEOM_OPT_MAX_CYCLES       100
GEOM_OPT_TOL_GRADIENT     300
GEOM_OPT_TOL_DISPLACEMENT 1200
GEOM_OPT_TOL_ENERGY       100
SYMMETRY                  False
THRESH                    12
SCF_CONVERGENCE           8
MAX_SUB_FILE_NUM          128
MEM_STATIC                400
MEM_TOTAL                 4000
$end
--------------------------------------------------------------

   16   -1510.2751507340      5.37E-09 Convergence criterion met
 Total energy in the final basis set = -1510.27515073
   13   -1510.2767478024      7.70E-09 Convergence criterion met
 Total energy in the final basis set = -1510.27674780
   14   -1510.2784199917      1.19E-09 Convergence criterion met
 Total energy in the final basis set = -1510.27841999
   14   -1510.2798972438      2.68E-09 Convergence criterion met
 Total energy in the final basis set = -1510.27989724
   13   -1510.2809723757      3.00E-09 Convergence criterion met
 Total energy in the final basis set = -1510.28097238
   13   -1510.2816251687      5.14E-09 Convergence criterion met
 Total energy in the final basis set = -1510.28162517
   13   -1510.2824481260      6.87E-09 Convergence criterion met
 Total energy in the final basis set = -1510.28244813
   13   -1510.2831888696      7.05E-09 Convergence criterion met
   13   -1510.2902797743      2.08E-09 Convergence criterion met
 Total energy in the final basis set = -1510.29027977
   12   -1510.2902784574      5.86E-09 Convergence criterion met
 Total energy in the final basis set = -1510.29027846
   12   -1510.2903082055      2.89E-09 Convergence criterion met
 Total energy in the final basis set = -1510.29030821
   10   -1510.2903090186      5.50E-09 Convergence criterion met
 Total energy in the final basis set = -1510.29030902
   10   -1510.2903140107      6.27E-09 Convergence criterion met
 Total energy in the final basis set = -1510.29031401
   10   -1510.2903198157      5.37E-09 Convergence criterion met
 Total energy in the final basis set = -1510.29031982

             Standard Nuclear Orientation (Angstroms)
    I     Atom           X                Y                Z
 ----------------------------------------------------------------
    1      O      -2.4853079002    -0.3060517817     2.7178745176
    2      C      -3.3137326026    -0.4271198151     1.7883267455
    3      C      -4.0589779156     0.7484433712     1.0500987818
    4      C      -3.2604225493     1.3348588502    -0.1885268282
    5      C      -1.9389957084     0.5563654638    -0.4880966349
    6      O      -1.1571781541     1.3136191388    -1.4059256361
    7      C       0.1208855747     0.6163348729    -1.7078266180
    8      C       1.1484822891     1.7031616335    -2.1854831426
    9      O       2.5069464248     1.1131989411    -2.1343374702
   10      C       3.0575817668     1.2783837737    -0.8197030716
   11      C       4.3331631357     0.3790179085    -0.6555832285
   12      C       4.3059495204    -0.4346146835     0.7103710740
   13      C       3.0729214133    -0.1504166914     1.6386014156
   14      O       3.1173738890     0.3093023009     2.8005703655
   15      O      -3.8075123280    -1.6817690288     1.3057797309
   16      O       1.8649178567    -0.5627021319     0.9853406062
   17      O       2.5699048211     2.0325717836     0.0509478679
   18      C       0.7118626822    -0.3655002937     1.8993920898
   19      C       4.4022215380    -0.8033781752    -1.7091581039
   20      C       5.8485739533    -1.4357205161    -1.6614949853
   21      C       5.7768415658    -2.2666729130    -0.3277205285
   22      C       4.3132956598    -1.9279931742     0.1607427487
   23      O       3.5407595659    -1.8428195601    -1.0993618655
   24      H       5.2271130116     1.0277933800    -0.7076374809
   25      H       5.2093967775    -0.2238210696     1.3092493386
   26      H       4.0299072001    -0.5314433516    -2.7148386228
   27      H       6.0130318147    -2.0863680012    -2.5349968594
   28      H       6.6363306324    -0.6656525870    -1.6417967577
   29      H       5.8766983671    -3.3469739512    -0.5193838481
   30      H       6.5416101029    -1.9651339060     0.4058331977
   31      H       3.8583886136    -2.6707698719     0.8441302128
   32      O      -1.5950878116    -0.5529568710    -0.0142181967
   33      C      -3.0505236065    -2.7877886151     1.9319972232
   34      C      -5.4131535595     0.3068894921     0.3478161467
   35      C      -6.2607460104     1.6066384658     0.0482057803
   36      C      -5.4662466309     2.2151855786    -1.1657253503
   37      C      -4.3273818699     1.1375867468    -1.3547972847
   38      O      -4.9829059047    -0.1387999291    -0.9988849738
   39      H      -4.2326359619     1.5438720850     1.7964730102
   40      H      -3.0127101567     2.4028671955    -0.0535403737
   41      H      -3.1172644138    -2.7567517502     3.0389318578
   42      H      -5.9558244355    -0.5057657165     0.8670737033
   43      H      -7.2897627525     1.3368115619    -0.2382644339
   44      H      -6.3008006798     2.2851998463     0.9151373894
   45      H      -6.0915908510     2.2766839619    -2.0705318514
   46      H      -5.0572549174     3.2150035982    -0.9499823822
   47      H      -3.8891320339     1.0855852265    -2.3705952601
   48      H      -1.9809572233    -2.7534039777     1.6399280535
   49      H      -3.5067264781    -3.7222943221     1.5569901434
   50      H      -0.1944544508    -0.6040783973     1.3048175492
   51      H       0.6580167762     0.6818199828     2.2579833621
   52      H       0.7772506529    -1.0350658463     2.7800905204
   53      H       0.9641791646     2.0052668758    -3.2351116130
   54      H       1.0853183311     2.5869139193    -1.5146978184
   55      H      -0.0384455788    -0.1509128054    -2.4954894918
   56      H       0.5240288304     0.1082869954    -0.8036670693
 ----------------------------------------------------------------

    9   -1510.2903163864      5.05E-09 Convergence criterion met
 Total energy in the final basis set = -1510.29031639
 Final energy is   -1510.29031638643
 **  OPTIMIZATION CONVERGED  **

                    Orbital Energies (a.u.)
 --------------------------------------------------------------

 Alpha MOs
 -- Occupied --
-18.947 -18.939 -18.922 -18.921 -18.891 -18.889 -18.886 -18.881
-18.864 -18.857 -10.113 -10.105 -10.091 -10.089 -10.077 -10.073
-10.064 -10.058 -10.058 -10.057 -10.053 -10.043 -10.040 -10.038
-10.034 -10.033 -10.022 -10.020 -10.020 -10.019  -1.025  -1.017
 -0.998  -0.998  -0.971  -0.968  -0.949  -0.942  -0.924  -0.923
 -0.765  -0.762  -0.729  -0.722  -0.715  -0.706  -0.696  -0.652
 -0.645  -0.618  -0.596  -0.580  -0.547  -0.544  -0.538  -0.536
 -0.517  -0.510  -0.486  -0.477  -0.465  -0.461  -0.453  -0.444
 -0.435  -0.432  -0.429  -0.410  -0.407  -0.403  -0.399  -0.397
 -0.393  -0.384  -0.372  -0.369  -0.363  -0.352  -0.348  -0.347
 -0.341  -0.335  -0.333  -0.330  -0.329  -0.326  -0.318  -0.314
 -0.310  -0.306  -0.303  -0.302  -0.294  -0.287  -0.279  -0.277
 -0.271  -0.262  -0.255  -0.244  -0.240  -0.234  -0.233  -0.189
 -0.180  -0.166  -0.164  -0.164  -0.160  -0.147  -0.143  -0.141
 -0.139

          Ground-State Mulliken Net Atomic Charges

     Atom                 Charge (a.u.)
  ----------------------------------------
      1 O                    -0.224058
      2 C                     0.213066
      3 C                    -0.081346
      4 C                    -0.078325
      5 C                     0.219978
      6 O                    -0.170224
      7 C                    -0.054040
      8 C                    -0.049852
      9 O                    -0.171434
     10 C                     0.213961
     11 C                    -0.078051
     12 C                    -0.080370
     13 C                     0.208614
     14 O                    -0.211982
     15 O                    -0.168227
     16 O                    -0.177007
     17 O                    -0.212032
     18 C                    -0.140834
     19 C                     0.023258
     20 C                    -0.144618
     21 C                    -0.143721
     22 C                     0.025903
     23 O                    -0.188187
     24 H                     0.085542
     25 H                     0.084496
     26 H                     0.091568
     27 H                     0.077588
     28 H                     0.072839
     29 H                     0.077743
     30 H                     0.074000
     31 H                     0.084083
     32 O                    -0.209117
     33 C                    -0.127083
     34 C                     0.026139
     35 C                    -0.144192
     36 C                    -0.143739
     37 C                     0.025722
     38 O                    -0.186947
     39 H                     0.083553
     40 H                     0.088237
     41 H                     0.086340
     42 H                     0.089694
     43 H                     0.078047
     44 H                     0.073769
     45 H                     0.078373
     46 H                     0.074084
     47 H                     0.083928
     48 H                     0.092082
     49 H                     0.088204
     50 H                     0.104339
     51 H                     0.088179
     52 H                     0.083383
     53 H                     0.090221
     54 H                     0.101440
     55 H                     0.088274
     56 H                     0.108737
  ----------------------------------------
  Sum of atomic charges =     0.000000

                    Cartesian Multipole Moments
 -----------------------------------------------------------------
    Charge (ESU x 10^10)
                 0.0000
    Dipole Moment (Debye)
         X       0.0062      Y       0.8530      Z      -2.1589
       Tot       2.3213
    Quadrupole Moments (Debye-Ang)
        XX    -140.2470     XY     -10.4168     YY    -156.0551
        XZ      -8.2752     YZ      -8.0586     ZZ    -164.5496

 Total job time:  100.49s(wall), 4787.19s(cpu)
        *  Thank you very much for using Q-Chem.  Have a nice day.  *
