 Q-Chem 5.0, Q-Chem, Inc., Pleasanton, CA (2017)
 Q-Chem 5.0.1 for Intel X86 EM64T Linux

User input:
--------------------------------------------------------------
$molecule
0  1
O -3.94934 -3.66094 2.70899
C -3.26408 -4.56952 2.26188
C -3.36658 -6.02376 2.66595
C -3.78725 -7.02693 1.57943
C -3.88602 -6.49088 0.16841
O -2.66618 -6.56276 -0.44171
C -2.66559 -6.01761 -1.76537
C -1.27321 -6.12674 -2.37815
O -1.27839 -5.5785 -3.70566
C -0.0908 -5.62172 -4.35903
C -0.24696 -5.75103 -5.85554
C 1.04266 -6.09886 -6.61329
C 2.19011 -6.60952 -5.76518
O 3.3511 -6.71549 -6.13318
O -2.34078 -4.2765 1.30751
O 1.83854 -7.45046 -4.74794
O 0.94827 -5.31032 -3.7899
C 2.72057 -8.17565 -3.9725
C -1.13122 -6.94998 -6.28163
C -1.70435 -6.68963 -7.67423
C -0.45664 -6.82916 -8.52261
C 0.54589 -7.28617 -7.45649
O -0.23451 -8.00196 -6.53217
H -0.7422 -4.82006 -6.21259
H 1.42747 -5.25364 -7.22486
H -1.95583 -7.17532 -5.57113
H -2.38595 -7.54029 -7.90383
H -2.26006 -5.73567 -7.80041
H -0.63272 -7.62738 -9.27734
H -0.11459 -5.89688 -9.02227
H 1.38472 -7.84954 -7.92258
O -4.82947 -5.82141 -0.23497
C -2.1241 -3.01723 0.79006
C -2.02213 -6.61385 3.12358
C -2.26518 -7.80887 4.0441
C -2.76259 -8.83489 3.04738
C -2.62646 -8.04352 1.74153
O -1.50582 -7.22123 1.9665
H -4.09168 -6.04828 3.51104
H -4.7542 -7.53464 1.79161
H -1.81136 -2.32025 1.59659
H -1.36618 -5.86671 3.622
H -1.27438 -8.1403 4.42951
H -2.94494 -7.60943 4.90031
H -2.05552 -9.6943 3.04756
H -3.79965 -9.198 3.21415
H -2.55721 -8.74333 0.87949
H -3.04886 -2.64049 0.30312
H -1.3179 -3.07156 0.02994
H 2.14847 -8.75901 -3.22228
H 3.41352 -7.48937 -3.44074
H 3.2997 -8.88066 -4.60628
H -0.55943 -5.56786 -1.73218
H -0.9746 -7.19851 -2.413
H -2.94916 -4.94067 -1.73913
H -3.38289 -6.57501 -2.40968
$end

$opt
CONSTRAINT
tors           1           2           3           4    +116.658
tors           3           4           5           6     +86.881
tors           4           5           6           7    -177.416
tors           5           6           7           8    +179.735
tors           6           7           8           9    -180.000
tors           7           8           9          10    -179.832
tors           8           9          10          11    +149.450
tors           9          10          11          12    -167.741
tors          11          12          13          14    -166.465
ENDCONSTRAINT
$end

$rem
JOBTYPE                   OPT
METHOD                    B3LYP
DFT_D                     d3_op
BASIS                     STO-3G
GEOM_OPT_MAX_CYCLES       100
GEOM_OPT_TOL_GRADIENT     300
GEOM_OPT_TOL_DISPLACEMENT 1200
GEOM_OPT_TOL_ENERGY       100
SYMMETRY                  False
THRESH                    12
SCF_CONVERGENCE           8
MAX_SUB_FILE_NUM          128
MEM_STATIC                400
MEM_TOTAL                 4000
$end
--------------------------------------------------------------

   15   -1510.1363411539      7.46E-09 Convergence criterion met
 Total energy in the final basis set = -1510.13634115
   14   -1510.2066379522      7.58E-09 Convergence criterion met
 Total energy in the final basis set = -1510.20663795
   14   -1510.2442359574      9.02E-09 Convergence criterion met
 Total energy in the final basis set = -1510.24423596
   14   -1510.2602205290      6.68E-09 Convergence criterion met
 Total energy in the final basis set = -1510.26022053
   14   -1510.2653201928      4.19E-09 Convergence criterion met
 Total energy in the final basis set = -1510.26532019
   13   -1510.2668454480      7.34E-09 Convergence criterion met
 Total energy in the final basis set = -1510.26684545
   13   -1510.2672674193      7.23E-09 Convergence criterion met
 Total energy in the final basis set = -1510.26726742
   12   -1510.2675920626      6.89E-09 Convergence criterion met
    9   -1510.2677947665      9.19E-09 Convergence criterion met
 Total energy in the final basis set = -1510.26779477
   10   -1510.2677990096      9.21E-09 Convergence criterion met
 Total energy in the final basis set = -1510.26779901
   11   -1510.2678013988      2.71E-09 Convergence criterion met
 Total energy in the final basis set = -1510.26780140
   11   -1510.2678074316      2.90E-09 Convergence criterion met
 Total energy in the final basis set = -1510.26780743
    9   -1510.2678100195      7.82E-09 Convergence criterion met
 Total energy in the final basis set = -1510.26781002
    9   -1510.2678116268      4.45E-09 Convergence criterion met
 Total energy in the final basis set = -1510.26781163

             Standard Nuclear Orientation (Angstroms)
    I     Atom           X                Y                Z
 ----------------------------------------------------------------
    1      O       5.4678373186    -2.1667473353     1.4067730766
    2      C       4.8110882858    -1.1741303508     1.0219704777
    3      C       5.2583127059    -0.1157297289    -0.0422209705
    4      C       4.3595023154    -0.0562630329    -1.3583293067
    5      C       3.0993621966    -0.9905791305    -1.2973412115
    6      O       2.0228963248    -0.2866628799    -0.6751724861
    7      C       0.8361226814    -1.1660716022    -0.5474138991
    8      C      -0.2566356023    -0.2917418554     0.1457946440
    9      O      -1.4643320229    -1.1412425401     0.2913271831
   10      C      -2.5140650195    -0.3806794847     0.9256709355
   11      C      -3.8941273420    -0.9109193700     0.3957221304
   12      C      -5.1557802978    -0.0239018532     0.7308887973
   13      C      -4.9144947892     1.5214511422     0.9090462700
   14      O      -5.7283578416     2.3335456274     1.4028732207
   15      O       3.5151187088    -0.8302796421     1.5222829143
   16      O      -3.7562059953     1.9189996150     0.1694044129
   17      O      -2.3090665181     0.5016698921     1.7845466994
   18      C      -3.6010465845     3.3891749075     0.2213864937
   19      C      -4.0363719729    -1.1039377195    -1.1793422921
   20      C      -5.0292979196    -2.3102062627    -1.3974806307
   21      C      -6.3745941561    -1.6666709760    -0.8915396892
   22      C      -5.9357441982    -0.1648034398    -0.6559913084
   23      O      -4.8411761072     0.0532313488    -1.6322801176
   24      H      -4.0290097668    -1.9003544724     0.8747016579
   25      H      -5.7323542051    -0.4043537636     1.5916554995
   26      H      -3.0748616746    -1.1615920636    -1.7250259081
   27      H      -5.0866747903    -2.5687052586    -2.4671791113
   28      H      -4.7405235144    -3.2084407127    -0.8289413060
   29      H      -7.1676240855    -1.7234691863    -1.6539109576
   30      H      -6.7444367645    -2.1335518135     0.0356141374
   31      H      -6.7386662884     0.5846403095    -0.7978634350
   32      O       3.0215158169    -2.1719988141    -1.7008798714
   33      C       3.0634334836    -1.8437210141     2.5029387816
   34      C       5.1348105180     1.3877082604     0.4686653228
   35      C       6.0745954256     2.2805898198    -0.4337695669
   36      C       5.2495758874     2.3231564489    -1.7738610789
   37      C       3.9717830750     1.4821827481    -1.3758110422
   38      O       3.7752677170     1.7975624398     0.0576483966
   39      H       6.3027234457    -0.3579721019    -0.3068194777
   40      H       4.9513052901    -0.3512978365    -2.2431014435
   41      H       3.7649926299    -1.9305091927     3.3573913314
   42      H       5.2646498855     1.5143012119     1.5608499560
   43      H       6.1839186126     3.2855195059     0.0042488980
   44      H       7.0754136407     1.8383756687    -0.5609911521
   45      H       4.9644026037     3.3530866023    -2.0408940832
   46      H       5.7918729229     1.8760470496    -2.6223972719
   47      H       3.0556785621     1.7154425177    -1.9515429246
   48      H       2.9553147069    -2.8435545029     2.0343079106
   49      H       2.0782122465    -1.4966262991     2.8653037590
   50      H      -2.7273591406     3.6250886912    -0.4135230338
   51      H      -3.4120552687     3.7414666940     1.2560106791
   52      H      -4.4995427731     3.9082125006    -0.1705418609
   53      H       0.1144084228     0.0642524652     1.1322000061
   54      H      -0.4803702964     0.6004951926    -0.4790255146
   55      H       1.0687444572    -2.0611647996     0.0693481072
   56      H       0.4852473797    -1.5160982142    -1.5430163874
 ----------------------------------------------------------------

    9   -1510.2678117736      4.05E-09 Convergence criterion met
 Total energy in the final basis set = -1510.26781177
 Final energy is   -1510.26781177360
 **  OPTIMIZATION CONVERGED  **

                    Orbital Energies (a.u.)
 --------------------------------------------------------------

 Alpha MOs
 -- Occupied --
-18.936 -18.936 -18.929 -18.923 -18.890 -18.889 -18.884 -18.875
-18.874 -18.865 -10.103 -10.100 -10.099 -10.093 -10.075 -10.073
-10.065 -10.062 -10.061 -10.061 -10.061 -10.058 -10.040 -10.038
-10.038 -10.037 -10.022 -10.022 -10.021 -10.021  -1.016  -1.012
 -1.009  -1.003  -0.972  -0.971  -0.941  -0.936  -0.934  -0.927
 -0.765  -0.763  -0.728  -0.723  -0.716  -0.706  -0.695  -0.662
 -0.656  -0.613  -0.598  -0.578  -0.548  -0.545  -0.539  -0.538
 -0.521  -0.512  -0.487  -0.477  -0.471  -0.456  -0.454  -0.436
 -0.434  -0.434  -0.427  -0.414  -0.412  -0.411  -0.406  -0.404
 -0.394  -0.378  -0.371  -0.366  -0.361  -0.356  -0.353  -0.351
 -0.345  -0.339  -0.336  -0.333  -0.332  -0.325  -0.319  -0.314
 -0.308  -0.307  -0.305  -0.302  -0.298  -0.289  -0.286  -0.278
 -0.271  -0.260  -0.256  -0.248  -0.242  -0.235  -0.235  -0.183
 -0.178  -0.172  -0.166  -0.158  -0.156  -0.148  -0.146  -0.144
 -0.143

          Ground-State Mulliken Net Atomic Charges

     Atom                 Charge (a.u.)
  ----------------------------------------
      1 O                    -0.212100
      2 C                     0.204026
      3 C                    -0.079408
      4 C                    -0.078156
      5 C                     0.207187
      6 O                    -0.163523
      7 C                    -0.043188
      8 C                    -0.045681
      9 O                    -0.184425
     10 C                     0.217613
     11 C                    -0.079745
     12 C                    -0.077431
     13 C                     0.212506
     14 O                    -0.218436
     15 O                    -0.165178
     16 O                    -0.166368
     17 O                    -0.200880
     18 C                    -0.126106
     19 C                     0.026132
     20 C                    -0.141593
     21 C                    -0.145325
     22 C                     0.024361
     23 O                    -0.189242
     24 H                     0.083735
     25 H                     0.086062
     26 H                     0.087371
     27 H                     0.077995
     28 H                     0.074101
     29 H                     0.078659
     30 H                     0.074245
     31 H                     0.084157
     32 O                    -0.215382
     33 C                    -0.129009
     34 C                     0.026667
     35 C                    -0.143477
     36 C                    -0.144740
     37 C                     0.026854
     38 O                    -0.183151
     39 H                     0.085483
     40 H                     0.085400
     41 H                     0.090099
     42 H                     0.083926
     43 H                     0.078118
     44 H                     0.074131
     45 H                     0.077917
     46 H                     0.073587
     47 H                     0.085231
     48 H                     0.088136
     49 H                     0.091004
     50 H                     0.089135
     51 H                     0.090126
     52 H                     0.089151
     53 H                     0.094679
     54 H                     0.087413
     55 H                     0.089044
     56 H                     0.088293
  ----------------------------------------
  Sum of atomic charges =     0.000000

                    Cartesian Multipole Moments
 -----------------------------------------------------------------
    Charge (ESU x 10^10)
                 0.0000
    Dipole Moment (Debye)
         X       0.4000      Y      -0.1445      Z      -0.9821
       Tot       1.0703
    Quadrupole Moments (Debye-Ang)
        XX    -156.2193     XY      22.0699     YY    -161.9582
        XZ       0.4547     YZ      -7.1592     ZZ    -159.9507

 Total job time:  54.19s(wall), 2575.97s(cpu)
        *  Thank you very much for using Q-Chem.  Have a nice day.  *
