 Q-Chem 5.0, Q-Chem, Inc., Pleasanton, CA (2017)
 Q-Chem 5.0.1 for Intel X86 EM64T Linux

User input:
--------------------------------------------------------------
$molecule
0  1
O 5.4678373186 -2.1667473353 1.4067730766
C 4.8110882858 -1.1741303508 1.0219704777
C 5.2583127059 -0.1157297289 -0.0422209705
C 4.3595023154 -0.0562630329 -1.3583293067
C 3.0993621966 -0.9905791305 -1.2973412115
O 2.0228963248 -0.2866628799 -0.6751724861
C 0.8361226814 -1.1660716022 -0.5474138991
C -0.2566356023 -0.2917418554 0.145794644
O -1.4643320229 -1.1412425401 0.2913271831
C -2.5140650195 -0.3806794847 0.9256709355
C -3.894127342 -0.91091937 0.3957221304
C -5.1557802978 -0.0239018532 0.7308887973
C -4.9144947892 1.5214511422 0.90904627
O -5.7283578416 2.3335456274 1.4028732207
O 3.5151187088 -0.8302796421 1.5222829143
O -3.7562059953 1.918999615 0.1694044129
O -2.3090665181 0.5016698921 1.7845466994
C -3.6010465845 3.3891749075 0.2213864937
C -4.0363719729 -1.1039377195 -1.1793422921
C -5.0292979196 -2.3102062627 -1.3974806307
C -6.3745941561 -1.666670976 -0.8915396892
C -5.9357441982 -0.1648034398 -0.6559913084
O -4.8411761072 0.0532313488 -1.6322801176
H -4.0290097668 -1.9003544724 0.8747016579
H -5.7323542051 -0.4043537636 1.5916554995
H -3.0748616746 -1.1615920636 -1.7250259081
H -5.0866747903 -2.5687052586 -2.4671791113
H -4.7405235144 -3.2084407127 -0.828941306
H -7.1676240855 -1.7234691863 -1.6539109576
H -6.7444367645 -2.1335518135 0.0356141374
H -6.7386662884 0.5846403095 -0.797863435
O 3.0215158169 -2.1719988141 -1.7008798714
C 3.0634334836 -1.8437210141 2.5029387816
C 5.134810518 1.3877082604 0.4686653228
C 6.0745954256 2.2805898198 -0.4337695669
C 5.2495758874 2.3231564489 -1.7738610789
C 3.971783075 1.4821827481 -1.3758110422
O 3.775267717 1.7975624398 0.0576483966
H 6.3027234457 -0.3579721019 -0.3068194777
H 4.9513052901 -0.3512978365 -2.2431014435
H 3.7649926299 -1.9305091927 3.3573913314
H 5.2646498855 1.5143012119 1.560849956
H 6.1839186126 3.2855195059 0.004248898
H 7.0754136407 1.8383756687 -0.5609911521
H 4.9644026037 3.3530866023 -2.0408940832
H 5.7918729229 1.8760470496 -2.6223972719
H 3.0556785621 1.7154425177 -1.9515429246
H 2.9553147069 -2.8435545029 2.0343079106
H 2.0782122465 -1.4966262991 2.865303759
H -2.7273591406 3.6250886912 -0.4135230338
H -3.4120552687 3.741466694 1.2560106791
H -4.4995427731 3.9082125006 -0.1705418609
H 0.1144084228 0.0642524652 1.1322000061
H -0.4803702964 0.6004951926 -0.4790255146
H 1.0687444572 -2.0611647996 0.0693481072
H 0.4852473797 -1.5160982142 -1.5430163874
$end

$rem
JOBTYPE                   OPT
METHOD                    B3LYP
DFT_D                     d3_op
BASIS                     STO-3G
GEOM_OPT_MAX_CYCLES       100
GEOM_OPT_TOL_GRADIENT     300
GEOM_OPT_TOL_DISPLACEMENT 1200
GEOM_OPT_TOL_ENERGY       100
SYMMETRY                  False
THRESH                    12
SCF_CONVERGENCE           8
MAX_SUB_FILE_NUM          128
MEM_STATIC                400
MEM_TOTAL                 4000
$end
--------------------------------------------------------------

   16   -1510.2678110654      7.37E-09 Convergence criterion met
 Total energy in the final basis set = -1510.26781107
   14   -1510.2717365833      5.54E-09 Convergence criterion met
 Total energy in the final basis set = -1510.27173658
   14   -1510.2746774710      4.83E-09 Convergence criterion met
 Total energy in the final basis set = -1510.27467747
   13   -1510.2765331366      8.24E-09 Convergence criterion met
 Total energy in the final basis set = -1510.27653314
   14   -1510.2782587267      2.31E-09 Convergence criterion met
 Total energy in the final basis set = -1510.27825873
   14   -1510.2796474920      5.43E-09 Convergence criterion met
 Total energy in the final basis set = -1510.27964749
   14   -1510.2806499192      4.97E-09 Convergence criterion met
 Total energy in the final basis set = -1510.28064992
   13   -1510.2814186036      7.95E-09 Convergence criterion met
   13   -1510.2913637381      5.76E-09 Convergence criterion met
 Total energy in the final basis set = -1510.29136374
   13   -1510.2914623760      2.70E-09 Convergence criterion met
 Total energy in the final basis set = -1510.29146238
   12   -1510.2915199383      5.42E-09 Convergence criterion met
 Total energy in the final basis set = -1510.29151994
    9   -1510.2915250799      8.58E-09 Convergence criterion met
 Total energy in the final basis set = -1510.29152508
   10   -1510.2915283816      9.44E-09 Convergence criterion met
 Total energy in the final basis set = -1510.29152838
   10   -1510.2915289007      5.64E-09 Convergence criterion met
 Total energy in the final basis set = -1510.29152890

             Standard Nuclear Orientation (Angstroms)
    I     Atom           X                Y                Z
 ----------------------------------------------------------------
    1      O       3.1374188913     0.6411832411     3.0509746640
    2      C       3.1662362966     0.6712933263     1.8013846173
    3      C       4.4400016801     0.7748913899     0.8969983371
    4      C       4.4975222591    -0.2827347980    -0.2898672619
    5      C       3.2028031640    -1.1733404777    -0.3653202757
    6      O       2.4783086244    -0.8544659942    -1.5613268499
    7      C       1.1792433576    -1.5636970698    -1.5883052633
    8      C       0.0875389096    -0.5178452218    -2.0071876060
    9      O      -1.2587627181    -1.1370312787    -1.8929863357
   10      C      -1.9766973064    -0.5976109187    -0.7863393872
   11      C      -3.3578901788    -1.3185009353    -0.6877926202
   12      C      -4.0883860251    -1.0873650914     0.7009099650
   13      C      -3.2598657451    -0.2120894611     1.7183368439
   14      O      -2.4123802062    -0.6343032000     2.5358403496
   15      O       2.0057528096     0.6279355658     0.9658696118
   16      O      -3.6970156799     1.1484458664     1.6392237695
   17      O      -1.5583516563     0.3259929827    -0.0472410635
   18      C      -2.8812775462     1.9885241222     2.5433410044
   19      C      -4.4192121648    -0.6873793623    -1.6965776909
   20      C      -5.6256513162    -1.6983188882    -1.8301552830
   21      C      -6.3501752450    -1.4859079685    -0.4494763926
   22      C      -5.4285970490    -0.3891429627     0.2166331975
   23      O      -4.9895256932     0.4404288669    -0.9309982609
   24      H      -3.2016334343    -2.3912143270    -0.9000187910
   25      H      -4.2882813585    -2.0575742522     1.1897592259
   26      H      -3.9873417483    -0.3358019806    -2.6538795576
   27      H      -6.2727183108    -1.4140532667    -2.6753555837
   28      H      -5.2845684192    -2.7352050299    -1.9795599230
   29      H      -7.3728834612    -1.0999053965    -0.5853346419
   30      H      -6.3968749355    -2.4080889025     0.1511645277
   31      H      -5.9180505457     0.2414383360     0.9827467908
   32      O       2.8529706006    -2.0549359251     0.4500987237
   33      C       0.7896917870     0.4123437411     1.7874218110
   34      C       4.4996802720     2.1406375247     0.0766785141
   35      C       5.9928271384     2.3656539990    -0.3828877012
   36      C       6.1205547436     1.2880483133    -1.5223811639
   37      C       4.6616566060     0.6790074411    -1.5372185371
   38      O       3.7951478063     1.8292367685    -1.1856230834
   39      H       5.3177370523     0.6725439735     1.5587672032
   40      H       5.3651408651    -0.9560729958    -0.1643757697
   41      H       0.6724049224     1.2101861646     2.5472919665
   42      H       4.0256289396     3.0033521456     0.5838979523
   43      H       6.1228491157     3.3863540881    -0.7768250754
   44      H       6.7110072308     2.2094869676     0.4375635479
   45      H       6.3543947438     1.7516363780    -2.4938148845
   46      H       6.8851141113     0.5258532455    -1.3023337789
   47      H       4.3427436119     0.2352647544    -2.4989100106
   48      H       0.8311378053    -0.5648063390     2.3095304754
   49      H      -0.0712593764     0.4248788138     1.0842601587
   50      H      -3.3279458585     2.9991450364     2.5090891977
   51      H      -1.8280417003     2.0367573435     2.1996153988
   52      H      -2.8966430549     1.6061983512     3.5844623776
   53      H       0.1473933185     0.3735274953    -1.3477033897
   54      H       0.2251207313    -0.2134673087    -3.0647031549
   55      H       0.9685530162    -1.9856283908    -0.5813376315
   56      H       1.2212645548    -2.3967845743    -2.3225677156
 ----------------------------------------------------------------

    9   -1510.2915281171      6.60E-09 Convergence criterion met
 Total energy in the final basis set = -1510.29152812
 Final energy is   -1510.29152811709
 **  OPTIMIZATION CONVERGED  **

                    Orbital Energies (a.u.)
 --------------------------------------------------------------

 Alpha MOs
 -- Occupied --
-18.950 -18.931 -18.925 -18.925 -18.897 -18.891 -18.886 -18.869
-18.868 -18.860 -10.117 -10.099 -10.093 -10.091 -10.075 -10.070
-10.066 -10.060 -10.059 -10.056 -10.055 -10.045 -10.038 -10.037
-10.037 -10.033 -10.024 -10.021 -10.019 -10.018  -1.028  -1.011
 -1.001  -1.000  -0.973  -0.968  -0.953  -0.934  -0.927  -0.926
 -0.767  -0.761  -0.730  -0.722  -0.715  -0.707  -0.695  -0.654
 -0.646  -0.619  -0.596  -0.579  -0.548  -0.543  -0.539  -0.535
 -0.518  -0.510  -0.486  -0.480  -0.467  -0.464  -0.455  -0.436
 -0.436  -0.432  -0.426  -0.411  -0.409  -0.404  -0.401  -0.400
 -0.396  -0.382  -0.374  -0.366  -0.365  -0.354  -0.348  -0.348
 -0.341  -0.337  -0.335  -0.331  -0.328  -0.328  -0.318  -0.315
 -0.307  -0.305  -0.303  -0.301  -0.292  -0.288  -0.281  -0.279
 -0.271  -0.261  -0.248  -0.245  -0.241  -0.236  -0.231  -0.193
 -0.172  -0.171  -0.166  -0.166  -0.155  -0.148  -0.143  -0.141
 -0.141

          Ground-State Mulliken Net Atomic Charges

     Atom                 Charge (a.u.)
  ----------------------------------------
      1 O                    -0.211457
      2 C                     0.208022
      3 C                    -0.080145
      4 C                    -0.077735
      5 C                     0.217234
      6 O                    -0.171273
      7 C                    -0.051363
      8 C                    -0.053279
      9 O                    -0.168978
     10 C                     0.221053
     11 C                    -0.078385
     12 C                    -0.080740
     13 C                     0.212751
     14 O                    -0.222738
     15 O                    -0.173372
     16 O                    -0.167459
     17 O                    -0.209321
     18 C                    -0.127384
     19 C                     0.026196
     20 C                    -0.143326
     21 C                    -0.144565
     22 C                     0.026318
     23 O                    -0.186020
     24 H                     0.088580
     25 H                     0.083875
     26 H                     0.084607
     27 H                     0.078874
     28 H                     0.074232
     29 H                     0.078454
     30 H                     0.073924
     31 H                     0.089909
     32 O                    -0.220517
     33 C                    -0.143473
     34 C                     0.025947
     35 C                    -0.143398
     36 C                    -0.144986
     37 C                     0.025045
     38 O                    -0.186766
     39 H                     0.084672
     40 H                     0.084085
     41 H                     0.082821
     42 H                     0.082984
     43 H                     0.077496
     44 H                     0.074107
     45 H                     0.077203
     46 H                     0.072872
     47 H                     0.089683
     48 H                     0.087889
     49 H                     0.107689
     50 H                     0.088672
     51 H                     0.090877
     52 H                     0.087800
     53 H                     0.108707
     54 H                     0.091043
     55 H                     0.100055
     56 H                     0.083003
  ----------------------------------------
  Sum of atomic charges =     0.000000

                    Cartesian Multipole Moments
 -----------------------------------------------------------------
    Charge (ESU x 10^10)
                 0.0000
    Dipole Moment (Debye)
         X      -0.4871      Y      -0.8105      Z      -2.4096
       Tot       2.5885
    Quadrupole Moments (Debye-Ang)
        XX    -138.7758     XY      10.2575     YY    -158.1947
        XZ      -6.2534     YZ       7.8508     ZZ    -164.4032

 Total job time:  258.12s(wall), 12301.93s(cpu)
        *  Thank you very much for using Q-Chem.  Have a nice day.  *
