 Q-Chem 5.0, Q-Chem, Inc., Pleasanton, CA (2017)
 Q-Chem 5.0.1 for Intel X86 EM64T Linux

User input:
--------------------------------------------------------------
$molecule
0  1
O 6.080132551 -1.8159019084 1.1609363918
C 5.1098447067 -1.1614500989 0.7185037113
C 5.2022058457 0.0830028948 -0.2271912326
C 4.1006396362 0.2311329814 -1.3656645829
C 2.8965722788 -0.7750336872 -1.2694783038
O 1.8977512384 -0.2322028029 -0.400177407
C 0.7796092055 -1.1923718261 -0.2452962714
C -0.2275373087 -0.5096132658 0.7357930402
O -1.517867571 -1.2354267056 0.6250234369
C -2.605115339 -0.3648160463 0.9503798749
C -3.9635181803 -1.1003104873 0.6392375373
C -5.1468696636 -0.0713399321 0.417115748
C -4.9393982158 1.320092306 1.1232948863
O -4.9484316555 1.5271072171 2.3561882598
O 3.748324534 -1.438882243 1.0571413889
O -4.7506983596 2.3399175945 0.1356635042
O -2.454858402 0.8232556341 1.3117473956
C -4.4631565698 3.6292073229 0.8029676608
C -3.8567577248 -1.7097868033 -0.8225954157
C -5.174575713 -2.5035463209 -1.184510996
C -6.1578276995 -1.3292117221 -1.5500001847
C -5.2718941782 -0.0808242331 -1.1677412431
O -3.92816615 -0.4802790056 -1.6505740241
H -4.1859389022 -1.850571842 1.4194600175
H -6.0666938569 -0.4962277999 0.8606337169
H -2.9081623332 -2.2495052087 -1.0074280507
H -4.9998701286 -3.1720410383 -2.0422848667
H -5.5348940192 -3.1078096012 -0.3364212649
H -6.3881956327 -1.3200154886 -2.6275162562
H -7.1023155447 -1.3671605618 -0.9843599577
H -5.5755896735 0.8858568035 -1.6123073521
O 2.7879089692 -1.8711403587 -1.8614193745
C 3.6713155049 -2.6338257884 1.9285186855
C 5.0312044564 1.4732541308 0.5422720714
C 5.7644234272 2.580238113 -0.3120715291
C 4.7766212763 2.7167662437 -1.5290343739
C 3.6224126042 1.7226665165 -1.1056296534
O 3.6025180463 1.808809542 0.3736727547
H 6.2067309832 0.0337933233 -0.6840429855
H 4.5602173624 0.1051173803 -2.3622343333
H 4.313555114 -2.5282817595 2.8260888408
H 5.3026234672 1.4443822231 1.615429848
H 5.831062561 3.5199881035 0.2592700368
H 6.7796005676 2.2762459565 -0.613289331
H 4.3877888972 3.7430301957 -1.6224692277
H 5.2380591756 2.4253605384 -2.4859758073
H 2.6231833274 1.957727503 -1.5190382147
H 3.9730038454 -3.5518922485 1.3835687926
H 2.6126368217 -2.7183296735 2.235418373
H -4.3082541699 4.3652998033 -0.0072137373
H -3.5483952444 3.5610884022 1.4265528986
H -5.3058842989 3.9562066431 1.4461271775
H 0.152515215 -0.5512602314 1.7795598218
H -0.3655776874 0.558917442 0.4642961495
H 1.1405893596 -2.1640510559 0.1543683486
H 0.2812496159 -1.3861168423 -1.2213688281
$end

$rem
JOBTYPE                   OPT
METHOD                    B3LYP
DFT_D                     d3_op
BASIS                     STO-3G
GEOM_OPT_MAX_CYCLES       100
GEOM_OPT_TOL_GRADIENT     300
GEOM_OPT_TOL_DISPLACEMENT 1200
GEOM_OPT_TOL_ENERGY       100
SYMMETRY                  False
THRESH                    12
SCF_CONVERGENCE           8
MAX_SUB_FILE_NUM          128
MEM_STATIC                400
MEM_TOTAL                 4000
$end
--------------------------------------------------------------

   16   -1510.2764573226      4.80E-09 Convergence criterion met
 Total energy in the final basis set = -1510.27645732
   13   -1510.2782406892      5.73E-09 Convergence criterion met
 Total energy in the final basis set = -1510.27824069
   13   -1510.2795437245      8.63E-09 Convergence criterion met
 Total energy in the final basis set = -1510.27954372
   13   -1510.2804399813      3.15E-09 Convergence criterion met
 Total energy in the final basis set = -1510.28043998
   13   -1510.2812568548      7.19E-09 Convergence criterion met
 Total energy in the final basis set = -1510.28125685
   13   -1510.2819642222      8.30E-09 Convergence criterion met
 Total energy in the final basis set = -1510.28196422
   13   -1510.2824645854      8.11E-09 Convergence criterion met
 Total energy in the final basis set = -1510.28246459
   13   -1510.2829498847      4.24E-09 Convergence criterion met
   12   -1510.2891041951      7.31E-09 Convergence criterion met
 Total energy in the final basis set = -1510.28910420
   12   -1510.2890894754      9.48E-09 Convergence criterion met
 Total energy in the final basis set = -1510.28908948
   13   -1510.2891556013      3.95E-09 Convergence criterion met
 Total energy in the final basis set = -1510.28915560
   13   -1510.2891894120      2.41E-09 Convergence criterion met
 Total energy in the final basis set = -1510.28918941
   12   -1510.2892939585      6.55E-09 Convergence criterion met
 Total energy in the final basis set = -1510.28929396
   11   -1510.2892801446      5.79E-09 Convergence criterion met
 Total energy in the final basis set = -1510.28928014

             Standard Nuclear Orientation (Angstroms)
    I     Atom           X                Y                Z
 ----------------------------------------------------------------
    1      O       3.5659848231    -1.3892936464     2.3503335818
    2      C       3.3797245357    -0.5336582330     1.4580166298
    3      C       4.4915515052     0.1188729804     0.5637567251
    4      C       4.3520797768    -0.1197596726    -1.0018897759
    5      C       3.0358856201    -0.9004219902    -1.3511525424
    6      O       2.3210486682    -0.2160832694    -2.3893955641
    7      C       0.9402447755    -0.7461036536    -2.4767369377
    8      C       0.0734416245    -0.0590298727    -1.3628665124
    9      O      -1.1697062860    -0.8623644560    -1.2234692824
   10      C      -1.8766034810    -0.5035696256    -0.0426548656
   11      C      -3.1847011797    -1.3618046088     0.0532050652
   12      C      -4.2668298996    -0.7409267052     1.0319532298
   13      C      -3.8252347097     0.6007824135     1.7237683812
   14      O      -3.5425019930     0.7572574495     2.9313697615
   15      O       2.0981096898     0.0468449356     1.1673770188
   16      O      -3.8970337465     1.6623566732     0.7632613350
   17      O      -1.4777657220     0.3443030623     0.7917355214
   18      C      -3.4201397338     2.9210280965     1.3771968224
   19      C      -3.9946956091    -1.4106854441    -1.3120033402
   20      C      -5.0430358090    -2.5884428710    -1.2198675239
   21      C      -6.1213468368    -1.9608153952    -0.2610397447
   22      C      -5.4847043218    -0.5437763517     0.0277072774
   23      O      -4.8305265131    -0.1909856748    -1.2531677388
   24      H      -2.8930284285    -2.3792980408     0.3752227537
   25      H      -4.5190847428    -1.4545278402     1.8356516110
   26      H      -3.3539243447    -1.4068229225    -2.2147336911
   27      H      -5.4637377018    -2.8081190127    -2.2139693796
   28      H      -4.5964781618    -3.5100070884    -0.8133456425
   29      H      -7.0944702453    -1.8498285668    -0.7654768797
   30      H      -6.2655784357    -2.5462325886     0.6611039561
   31      H      -6.2028661967     0.2445684589     0.3247243373
   32      O       2.6382283153    -1.9551634814    -0.8087116423
   33      C       1.0842696529    -0.4923899929     2.1091119981
   34      C       4.4579609187     1.7102590200     0.6208592072
   35      C       5.8688273930     2.2440666520     0.1550347549
   36      C       5.7958353065     1.9731075951    -1.3935078345
   37      C       4.3416337816     1.3720392504    -1.5334232733
   38      O       3.5611567176     2.0851540426    -0.4951511080
   39      H       5.4571848291    -0.2719294039     0.9296247889
   40      H       5.2148548822    -0.6931371454    -1.3886075958
   41      H       1.3014642813    -0.1835136164     3.1510292861
   42      H       4.0837199954     2.1278683818     1.5754827216
   43      H       5.9634480326     3.3198564875     0.3730157996
   44      H       6.6988286400     1.7096337306     0.6442007881
   45      H       5.8841520303     2.9060988755    -1.9723724902
   46      H       6.5693116467     1.2687597675    -1.7393334087
   47      H       3.8670699955     1.4920995810    -2.5252580019
   48      H       1.0516479538    -1.5997832062     2.0691264498
   49      H       0.1100186207    -0.0728564078     1.7773091672
   50      H      -3.5365661769     3.7025684258     0.6040927568
   51      H      -2.3528405764     2.8433618604     1.6699151653
   52      H      -4.0140596330     3.1917453265     2.2740553701
   53      H       0.6614517543    -0.0352342530    -0.4169875693
   54      H      -0.1751486640     0.9868890953    -1.6431687923
   55      H       0.9308295382    -1.8463951696    -2.3211668394
   56      H       0.5692383712    -0.5030391107    -3.4916840658
 ----------------------------------------------------------------

    9   -1510.2892809162      6.51E-09 Convergence criterion met
 Total energy in the final basis set = -1510.28928092
 Final energy is   -1510.28928091622
 **  OPTIMIZATION CONVERGED  **

                    Orbital Energies (a.u.)
 --------------------------------------------------------------

 Alpha MOs
 -- Occupied --
-18.947 -18.940 -18.927 -18.920 -18.889 -18.888 -18.888 -18.881
-18.870 -18.860 -10.113 -10.106 -10.094 -10.089 -10.077 -10.071
-10.061 -10.060 -10.059 -10.059 -10.053 -10.043 -10.042 -10.041
-10.036 -10.033 -10.021 -10.021 -10.020 -10.019  -1.025  -1.018
 -1.003  -0.998  -0.970  -0.970  -0.949  -0.942  -0.929  -0.923
 -0.765  -0.763  -0.729  -0.723  -0.715  -0.707  -0.696  -0.651
 -0.650  -0.618  -0.597  -0.581  -0.546  -0.546  -0.538  -0.537
 -0.519  -0.511  -0.488  -0.476  -0.468  -0.463  -0.452  -0.443
 -0.434  -0.433  -0.429  -0.412  -0.406  -0.403  -0.403  -0.400
 -0.394  -0.385  -0.372  -0.369  -0.363  -0.352  -0.350  -0.346
 -0.341  -0.339  -0.334  -0.331  -0.330  -0.325  -0.321  -0.314
 -0.310  -0.307  -0.305  -0.301  -0.296  -0.291  -0.282  -0.274
 -0.273  -0.263  -0.257  -0.244  -0.242  -0.235  -0.234  -0.188
 -0.182  -0.170  -0.164  -0.163  -0.161  -0.147  -0.145  -0.144
 -0.140

          Ground-State Mulliken Net Atomic Charges

     Atom                 Charge (a.u.)
  ----------------------------------------
      1 O                    -0.210521
      2 C                     0.209134
      3 C                    -0.080378
      4 C                    -0.078179
      5 C                     0.213141
      6 O                    -0.170794
      7 C                    -0.048781
      8 C                    -0.055255
      9 O                    -0.170133
     10 C                     0.221868
     11 C                    -0.077749
     12 C                    -0.081414
     13 C                     0.212439
     14 O                    -0.218201
     15 O                    -0.175737
     16 O                    -0.171137
     17 O                    -0.211819
     18 C                    -0.128108
     19 C                     0.024360
     20 C                    -0.143984
     21 C                    -0.144169
     22 C                     0.026674
     23 O                    -0.187211
     24 H                     0.087016
     25 H                     0.083422
     26 H                     0.088801
     27 H                     0.078007
     28 H                     0.073424
     29 H                     0.077801
     30 H                     0.073871
     31 H                     0.085274
     32 O                    -0.213001
     33 C                    -0.142689
     34 C                     0.025854
     35 C                    -0.143557
     36 C                    -0.144714
     37 C                     0.023373
     38 O                    -0.188163
     39 H                     0.085234
     40 H                     0.085901
     41 H                     0.083441
     42 H                     0.084382
     43 H                     0.078089
     44 H                     0.074176
     45 H                     0.078012
     46 H                     0.073096
     47 H                     0.092234
     48 H                     0.085671
     49 H                     0.106200
     50 H                     0.087726
     51 H                     0.091770
     52 H                     0.086358
     53 H                     0.108495
     54 H                     0.089759
     55 H                     0.099623
     56 H                     0.091071
  ----------------------------------------
  Sum of atomic charges =     0.000000

                    Cartesian Multipole Moments
 -----------------------------------------------------------------
    Charge (ESU x 10^10)
                -0.0000
    Dipole Moment (Debye)
         X       0.4703      Y      -0.2584      Z      -2.1783
       Tot       2.2434
    Quadrupole Moments (Debye-Ang)
        XX    -142.7960     XY      12.7007     YY    -158.1547
        XZ      -5.0263     YZ       4.0991     ZZ    -164.7765

 Total job time:  108.18s(wall), 5153.05s(cpu)
        *  Thank you very much for using Q-Chem.  Have a nice day.  *
