 Q-Chem 5.0, Q-Chem, Inc., Pleasanton, CA (2017)
 Q-Chem 5.0.1 for Intel X86 EM64T Linux

User input:
--------------------------------------------------------------
$molecule
0  1
O -3.94934 -3.66094 2.70899
C -3.26408 -4.56952 2.26188
C -3.36658 -6.02376 2.66595
C -3.18765 -7.07503 1.5584
C -2.75017 -6.56083 0.20478
O -1.38793 -6.47292 0.15993
C -0.89857 -5.93634 -1.0737
C 0.62351 -5.8453 -1.04027
O 1.13239 -5.66562 -2.37129
C 2.38816 -6.13172 -2.58331
C 2.79802 -6.07863 -4.03585
C 3.92333 -7.04773 -4.42675
C 4.2202 -8.1515 -3.43163
O 4.71674 -7.99403 -2.32564
O -2.16842 -4.22199 1.53487
O 3.9271 -9.42825 -3.80646
O 3.21785 -6.07443 -1.68539
C 4.13217 -10.54323 -3.02056
C 1.70286 -6.50348 -5.04492
C 1.9736 -5.83882 -6.39275
C 3.21674 -6.58516 -6.82916
C 3.30857 -7.63683 -5.71551
O 1.9739 -7.85297 -5.33001
H 3.07207 -5.01808 -4.23738
H 4.88734 -6.52929 -4.62273
H 0.66531 -6.27594 -4.71933
H 1.13222 -6.12645 -7.0639
H 2.06528 -4.73145 -6.38101
H 3.01359 -7.05594 -7.81655
H 4.14454 -5.97487 -6.87878
H 3.8636 -8.52668 -6.08539
O -3.5109 -6.02469 -0.59215
C -1.85795 -2.93568 1.14599
C -2.23025 -6.43167 3.62802
C -2.66725 -7.63179 4.46654
C -2.65031 -8.72545 3.41974
C -2.09304 -7.94888 2.22071
O -1.24257 -6.9918 2.80197
H -4.33161 -6.13222 3.21093
H -4.10087 -7.68517 1.38242
H -1.71836 -2.28814 2.03773
H -1.89963 -5.6016 4.29061
H -1.85289 -7.83036 5.19999
H -3.62781 -7.51054 5.01192
H -1.93353 -9.51169 3.74566
H -3.63796 -9.18137 3.19167
H -1.62161 -8.6492 1.49608
H -2.66703 -2.52573 0.50457
H -0.91359 -2.95065 0.56411
H 3.80355 -11.44515 -3.57642
H 3.53996 -10.46464 -2.08382
H 5.21103 -10.64649 -2.77641
H 0.97568 -5.04704 -0.35165
H 0.96971 -6.83228 -0.65093
H -1.3151 -4.92694 -1.29058
H -1.18415 -6.6358 -1.89275
$end

$opt
CONSTRAINT
tors           1           2           3           4    +142.084
tors           3           4           5           6     +86.203
tors           4           5           6           7    -177.416
tors           5           6           7           8    +178.986
tors           6           7           8           9    +164.196
tors           7           8           9          10    -152.609
tors           8           9          10          11    +172.497
tors           9          10          11          12    -157.394
tors          11          12          13          14     -68.667
ENDCONSTRAINT
$end

$rem
JOBTYPE                   OPT
METHOD                    B3LYP
DFT_D                     d3_op
BASIS                     STO-3G
GEOM_OPT_MAX_CYCLES       100
GEOM_OPT_TOL_GRADIENT     300
GEOM_OPT_TOL_DISPLACEMENT 1200
GEOM_OPT_TOL_ENERGY       100
SYMMETRY                  False
THRESH                    12
SCF_CONVERGENCE           8
MAX_SUB_FILE_NUM          128
MEM_STATIC                400
MEM_TOTAL                 4000
$end
--------------------------------------------------------------

   15   -1510.1309114388      9.24E-09 Convergence criterion met
 Total energy in the final basis set = -1510.13091144
   14   -1510.2019666086      5.82E-09 Convergence criterion met
 Total energy in the final basis set = -1510.20196661
   14   -1510.2405697038      6.13E-09 Convergence criterion met
 Total energy in the final basis set = -1510.24056970
   14   -1510.2583734623      5.22E-09 Convergence criterion met
 Total energy in the final basis set = -1510.25837346
   14   -1510.2655983145      2.48E-09 Convergence criterion met
 Total energy in the final basis set = -1510.26559831
   13   -1510.2690036374      8.61E-09 Convergence criterion met
 Total energy in the final basis set = -1510.26900364
   13   -1510.2706722965      5.75E-09 Convergence criterion met
 Total energy in the final basis set = -1510.27067230
   13   -1510.2714560301      3.73E-09 Convergence criterion met
   12   -1510.2762143147      2.77E-09 Convergence criterion met
 Total energy in the final basis set = -1510.27621431
   12   -1510.2762609785      3.24E-09 Convergence criterion met
 Total energy in the final basis set = -1510.27626098
    9   -1510.2762798549      8.13E-09 Convergence criterion met
 Total energy in the final basis set = -1510.27627985
    9   -1510.2763064896      9.42E-09 Convergence criterion met
 Total energy in the final basis set = -1510.27630649
    9   -1510.2763162800      9.86E-09 Convergence criterion met
 Total energy in the final basis set = -1510.27631628
    9   -1510.2763193941      6.93E-09 Convergence criterion met
 Total energy in the final basis set = -1510.27631939

             Standard Nuclear Orientation (Angstroms)
    I     Atom           X                Y                Z
 ----------------------------------------------------------------
    1      O       6.0801325510    -1.8159019084     1.1609363918
    2      C       5.1098447067    -1.1614500989     0.7185037113
    3      C       5.2022058457     0.0830028948    -0.2271912326
    4      C       4.1006396362     0.2311329814    -1.3656645829
    5      C       2.8965722788    -0.7750336872    -1.2694783038
    6      O       1.8977512384    -0.2322028029    -0.4001774070
    7      C       0.7796092055    -1.1923718261    -0.2452962714
    8      C      -0.2275373087    -0.5096132658     0.7357930402
    9      O      -1.5178675710    -1.2354267056     0.6250234369
   10      C      -2.6051153390    -0.3648160463     0.9503798749
   11      C      -3.9635181803    -1.1003104873     0.6392375373
   12      C      -5.1468696636    -0.0713399321     0.4171157480
   13      C      -4.9393982158     1.3200923060     1.1232948863
   14      O      -4.9484316555     1.5271072171     2.3561882598
   15      O       3.7483245340    -1.4388822430     1.0571413889
   16      O      -4.7506983596     2.3399175945     0.1356635042
   17      O      -2.4548584020     0.8232556341     1.3117473956
   18      C      -4.4631565698     3.6292073229     0.8029676608
   19      C      -3.8567577248    -1.7097868033    -0.8225954157
   20      C      -5.1745757130    -2.5035463209    -1.1845109960
   21      C      -6.1578276995    -1.3292117221    -1.5500001847
   22      C      -5.2718941782    -0.0808242331    -1.1677412431
   23      O      -3.9281661500    -0.4802790056    -1.6505740241
   24      H      -4.1859389022    -1.8505718420     1.4194600175
   25      H      -6.0666938569    -0.4962277999     0.8606337169
   26      H      -2.9081623332    -2.2495052087    -1.0074280507
   27      H      -4.9998701286    -3.1720410383    -2.0422848667
   28      H      -5.5348940192    -3.1078096012    -0.3364212649
   29      H      -6.3881956327    -1.3200154886    -2.6275162562
   30      H      -7.1023155447    -1.3671605618    -0.9843599577
   31      H      -5.5755896735     0.8858568035    -1.6123073521
   32      O       2.7879089692    -1.8711403587    -1.8614193745
   33      C       3.6713155049    -2.6338257884     1.9285186855
   34      C       5.0312044564     1.4732541308     0.5422720714
   35      C       5.7644234272     2.5802381130    -0.3120715291
   36      C       4.7766212763     2.7167662437    -1.5290343739
   37      C       3.6224126042     1.7226665165    -1.1056296534
   38      O       3.6025180463     1.8088095420     0.3736727547
   39      H       6.2067309832     0.0337933233    -0.6840429855
   40      H       4.5602173624     0.1051173803    -2.3622343333
   41      H       4.3135551140    -2.5282817595     2.8260888408
   42      H       5.3026234672     1.4443822231     1.6154298480
   43      H       5.8310625610     3.5199881035     0.2592700368
   44      H       6.7796005676     2.2762459565    -0.6132893310
   45      H       4.3877888972     3.7430301957    -1.6224692277
   46      H       5.2380591756     2.4253605384    -2.4859758073
   47      H       2.6231833274     1.9577275030    -1.5190382147
   48      H       3.9730038454    -3.5518922485     1.3835687926
   49      H       2.6126368217    -2.7183296735     2.2354183730
   50      H      -4.3082541699     4.3652998033    -0.0072137373
   51      H      -3.5483952444     3.5610884022     1.4265528986
   52      H      -5.3058842989     3.9562066431     1.4461271775
   53      H       0.1525152150    -0.5512602314     1.7795598218
   54      H      -0.3655776874     0.5589174420     0.4642961495
   55      H       1.1405893596    -2.1640510559     0.1543683486
   56      H       0.2812496159    -1.3861168423    -1.2213688281
 ----------------------------------------------------------------

    9   -1510.2763199355      3.89E-09 Convergence criterion met
 Total energy in the final basis set = -1510.27631994
 Final energy is   -1510.27631993552
 **  OPTIMIZATION CONVERGED  **

                    Orbital Energies (a.u.)
 --------------------------------------------------------------

 Alpha MOs
 -- Occupied --
-18.940 -18.938 -18.930 -18.923 -18.890 -18.884 -18.883 -18.876
-18.868 -18.857 -10.104 -10.102 -10.098 -10.090 -10.073 -10.072
-10.068 -10.062 -10.060 -10.058 -10.055 -10.054 -10.040 -10.040
-10.038 -10.031 -10.021 -10.020 -10.020 -10.018  -1.018  -1.016
 -1.006  -0.998  -0.971  -0.968  -0.942  -0.938  -0.932  -0.923
 -0.764  -0.761  -0.729  -0.722  -0.713  -0.705  -0.695  -0.665
 -0.652  -0.614  -0.597  -0.576  -0.546  -0.543  -0.538  -0.536
 -0.520  -0.510  -0.490  -0.474  -0.466  -0.461  -0.451  -0.442
 -0.434  -0.432  -0.427  -0.415  -0.412  -0.406  -0.403  -0.401
 -0.395  -0.378  -0.371  -0.365  -0.363  -0.356  -0.353  -0.345
 -0.341  -0.337  -0.335  -0.331  -0.328  -0.324  -0.319  -0.311
 -0.309  -0.307  -0.304  -0.300  -0.297  -0.290  -0.279  -0.277
 -0.274  -0.258  -0.251  -0.247  -0.243  -0.235  -0.232  -0.182
 -0.180  -0.172  -0.167  -0.157  -0.156  -0.147  -0.146  -0.144
 -0.137

          Ground-State Mulliken Net Atomic Charges

     Atom                 Charge (a.u.)
  ----------------------------------------
      1 O                    -0.213215
      2 C                     0.207088
      3 C                    -0.080078
      4 C                    -0.079029
      5 C                     0.213610
      6 O                    -0.164843
      7 C                    -0.043179
      8 C                    -0.047350
      9 O                    -0.174861
     10 C                     0.215392
     11 C                    -0.075427
     12 C                    -0.082100
     13 C                     0.213968
     14 O                    -0.219188
     15 O                    -0.166774
     16 O                    -0.171685
     17 O                    -0.206658
     18 C                    -0.127488
     19 C                     0.022809
     20 C                    -0.145624
     21 C                    -0.142299
     22 C                     0.022720
     23 O                    -0.193233
     24 H                     0.087186
     25 H                     0.081237
     26 H                     0.088823
     27 H                     0.077979
     28 H                     0.073345
     29 H                     0.077340
     30 H                     0.073079
     31 H                     0.091619
     32 O                    -0.219015
     33 C                    -0.127866
     34 C                     0.026288
     35 C                    -0.142752
     36 C                    -0.145214
     37 C                     0.026905
     38 O                    -0.184126
     39 H                     0.085892
     40 H                     0.084619
     41 H                     0.092567
     42 H                     0.083313
     43 H                     0.078370
     44 H                     0.074487
     45 H                     0.078253
     46 H                     0.073705
     47 H                     0.086379
     48 H                     0.090208
     49 H                     0.089414
     50 H                     0.087354
     51 H                     0.094316
     52 H                     0.085884
     53 H                     0.087821
     54 H                     0.102524
     55 H                     0.087948
     56 H                     0.089562
  ----------------------------------------
  Sum of atomic charges =    -0.000000

                    Cartesian Multipole Moments
 -----------------------------------------------------------------
    Charge (ESU x 10^10)
                 0.0000
    Dipole Moment (Debye)
         X      -0.2566      Y      -0.2443      Z      -0.6837
       Tot       0.7701
    Quadrupole Moments (Debye-Ang)
        XX    -151.4200     XY      14.2458     YY    -153.7780
        XZ       2.1043     YZ      -8.1373     ZZ    -164.1629

 Total job time:  69.65s(wall), 3310.44s(cpu)
        *  Thank you very much for using Q-Chem.  Have a nice day.  *
