 Q-Chem 5.0, Q-Chem, Inc., Pleasanton, CA (2017)
 Q-Chem 5.0.1 for Intel X86 EM64T Linux

User input:
--------------------------------------------------------------
$molecule
0  1
O -4.0160366142 -2.6476639728 1.6533471898
C -3.7687530176 -1.6963262379 0.8817399784
C -4.4493618047 -0.2880997738 0.8758578965
C -3.4529932083 0.9439025236 0.7519260022
C -1.9449174942 0.4938785739 0.6871027321
O -1.3481114233 0.9214522219 -0.5419938554
C -0.2095071019 0.0368676867 -0.8849236385
C 0.3687459033 0.5256976028 -2.2662819982
O 1.7860028247 0.0896018715 -2.3811410112
C 2.5509885997 0.7995409598 -1.3953416871
C 3.9050985751 0.0682600908 -1.1331183442
C 4.6031976867 0.5928592269 0.1826653167
C 3.6060761866 1.3216356385 1.1670162169
O 3.8210213857 2.375611308 1.8028389988
O -2.8475011288 -1.774933103 -0.2159935273
O 2.4403784605 0.4965875831 1.341236099
O 2.1948805814 1.8891925198 -0.8918380616
C 1.475807348 1.1455684587 2.2602858364
C 3.8485516434 -1.4981397374 -0.8763461981
C 5.2719147434 -2.0714382729 -1.2453970358
C 6.13645919 -1.4864753619 -0.0653881008
C 5.0247657503 -0.8002720405 0.8278302248
O 3.8201722319 -1.6336350192 0.5972503973
H 4.5487961559 0.2682629398 -2.0110104453
H 5.4589016934 1.2595867547 -0.0183491999
H 2.9835717711 -2.0108096159 -1.3403966382
H 5.2569255369 -3.1730048069 -1.2236412781
H 5.618984118 -1.7405440222 -2.2375232605
H 6.6484066012 -2.2832751446 0.4970683192
H 6.8905177191 -0.7613266928 -0.4120996564
H 5.2571843115 -0.750890984 1.9092632371
O -1.326590313 -0.119223427 1.5892433067
C -2.1949889736 -3.1050815911 -0.2302219903
C -5.3313142006 -0.0814974492 -0.4360616736
C -6.3197142544 1.1236002219 -0.1804009875
C -5.3364204875 2.3476210633 -0.286635669
C -3.9680318368 1.6176313604 -0.586657487
O -4.3668264706 0.4573580634 -1.4186260671
H -5.0640106759 -0.2170034648 1.7901374735
H -3.5740592505 1.6174921131 1.6202694228
H -2.9373410913 -3.9231319509 -0.1395300007
H -5.8040626257 -1.0059971356 -0.8208698385
H -7.0960032433 1.1569442445 -0.9616405159
H -6.8114948298 1.0552404867 0.8031060788
H -5.6076582536 3.0127564143 -1.1218149783
H -5.295945934 2.9423736145 0.6397727429
H -3.2053790131 2.2243215015 -1.1098659304
H -1.4614206307 -3.1993858741 0.5970492745
H -1.6699504692 -3.1824243603 -1.2000976612
H 0.5198805078 0.5875615106 2.1506729884
H 1.3204516115 2.209688524 1.9914210955
H 1.8261516763 1.0949399547 3.3114277002
H -0.1681347414 0.0640400393 -3.1174366615
H 0.2826724856 1.6322602666 -2.3274032574
H -0.558921831 -1.0135405071 -0.9572217741
H 0.5863929731 0.0875587556 -0.1092462784
$end

$rem
JOBTYPE                   OPT
METHOD                    B3LYP
DFT_D                     d3_op
BASIS                     STO-3G
GEOM_OPT_MAX_CYCLES       100
GEOM_OPT_TOL_GRADIENT     300
GEOM_OPT_TOL_DISPLACEMENT 1200
GEOM_OPT_TOL_ENERGY       100
SYMMETRY                  False
THRESH                    12
SCF_CONVERGENCE           8
MAX_SUB_FILE_NUM          128
MEM_STATIC                400
MEM_TOTAL                 4000
$end
--------------------------------------------------------------

   16   -1510.2792097369      6.02E-09 Convergence criterion met
 Total energy in the final basis set = -1510.27920974
   15   -1510.2600285026      3.91E-09 Convergence criterion met
 Total energy in the final basis set = -1510.26002850
   14   -1510.2825845510      5.46E-09 Convergence criterion met
 Total energy in the final basis set = -1510.28258455
   14   -1510.2829921934      8.40E-09 Convergence criterion met
 Total energy in the final basis set = -1510.28299219
   14   -1510.2851218863      4.94E-09 Convergence criterion met
 Total energy in the final basis set = -1510.28512189
   14   -1510.2862486961      6.13E-09 Convergence criterion met
 Total energy in the final basis set = -1510.28624870
   13   -1510.2869005630      6.06E-09 Convergence criterion met
 Total energy in the final basis set = -1510.28690056
   13   -1510.2874025408      8.46E-09 Convergence criterion met
   12   -1510.2911279603      7.74E-09 Convergence criterion met
 Total energy in the final basis set = -1510.29112796
   12   -1510.2911761185      5.91E-09 Convergence criterion met
 Total energy in the final basis set = -1510.29117612
   12   -1510.2911924807      3.11E-09 Convergence criterion met
 Total energy in the final basis set = -1510.29119248
   11   -1510.2912020763      3.50E-09 Convergence criterion met
 Total energy in the final basis set = -1510.29120208
    9   -1510.2912042043      5.44E-09 Convergence criterion met
 Total energy in the final basis set = -1510.29120420
    9   -1510.2912059564      4.17E-09 Convergence criterion met
 Total energy in the final basis set = -1510.29120596

             Standard Nuclear Orientation (Angstroms)
    I     Atom           X                Y                Z
 ----------------------------------------------------------------
    1      O      -3.5353120227    -0.7901678866     3.0567980661
    2      C      -3.5617399140    -0.6399686740     1.8167526293
    3      C      -4.4355502668     0.3648490060     0.9959676483
    4      C      -3.6375057899     1.1469879954    -0.1349902607
    5      C      -2.1054973266     0.7887276620    -0.1508280088
    6      O      -1.7767576309     0.0940802242    -1.3522426771
    7      C      -0.3441316290    -0.2903725141    -1.3699146557
    8      C       0.5727219774     0.9113724047    -1.7989882775
    9      O       1.9744421420     0.4343666759    -1.7955006053
   10      C       2.7752758092     1.2465489333    -0.9256012128
   11      C       4.2258882988     0.6470837108    -0.8348161688
   12      C       4.6074494253     0.1939588571     0.6405262310
   13      C       3.4846148947     0.4356286209     1.7032818331
   14      O       3.6152600679     1.0046422591     2.8095583549
   15      O      -2.7803461245    -1.4114639412     0.8950124255
   16      O       2.2595928564    -0.1146588714     1.2104089706
   17      O       2.3652782686     2.2912349674    -0.3726043006
   18      C       1.1510024026     0.1330679188     2.1654458737
   19      C       4.3932441579    -0.7178019194    -1.6222943883
   20      C       5.9363430616    -1.0277691147    -1.7639845421
   21      C       6.2885624703    -1.5009270737    -0.3050711887
   22      C       4.8859251942    -1.3568603358     0.4063641027
   23      O       3.9200249846    -1.7305970471    -0.6496932387
   24      H       4.9328628269     1.4173911762    -1.1945790980
   25      H       5.5138215182     0.7138772567     0.9965897488
   26      H       3.8045890816    -0.7752301755    -2.5570137720
   27      H       6.1020004087    -1.8299904495    -2.5004277703
   28      H       6.5104790771    -0.1401268934    -2.0743233399
   29      H       6.6207231736    -2.5513282866    -0.2899410128
   30      H       7.0626934250    -0.8784787464     0.1711926206
   31      H       4.7448518579    -1.9894976040     1.3041836158
   32      O      -1.2831961675     1.1085687525     0.7394705388
   33      C      -1.9008652512    -2.3521229683     1.6243198712
   34      C      -5.5277418639    -0.3872042636     0.1120763157
   35      C      -6.6036722951     0.6758344192    -0.3443194121
   36      C      -5.8093386273     1.4505844892    -1.4603953825
   37      C      -4.4243716706     0.6902944737    -1.4333127093
   38      O      -4.8020135278    -0.7106437647    -1.1345015273
   39      H      -4.9078149575     1.0592206371     1.7125712582
   40      H      -3.7182638691     2.2376339350     0.0265547902
   41      H      -2.4868100020    -3.0666083795     2.2374735836
   42      H      -5.9383541796    -1.3065984953     0.5730613276
   43      H      -7.4925099573     0.1711826871    -0.7555288942
   44      H      -6.9189973407     1.3273874838     0.4861533305
   45      H      -6.2889074352     1.3432350572    -2.4462780123
   46      H      -5.6973830324     2.5234115434    -1.2365682421
   47      H      -3.8324572343     0.7407309955    -2.3666088722
   48      H      -1.1938010292    -1.8136658483     2.2872312256
   49      H      -1.3363763335    -2.9029680831     0.8498050844
   50      H       0.2712184473     0.5056400393     1.5912916077
   51      H       1.4698872235     0.8752966038     2.9229549748
   52      H       0.8951172826    -0.8166067036     2.6767484274
   53      H       0.3069878095     1.2525905778    -2.8216894677
   54      H       0.4844943063     1.7595919656    -1.0852786488
   55      H      -0.2679818829    -1.1100864043    -2.1122680428
   56      H      -0.0162874680    -0.6671574271    -0.3789660272
 ----------------------------------------------------------------

    9   -1510.2912068758      3.29E-09 Convergence criterion met
 Total energy in the final basis set = -1510.29120688
 Final energy is   -1510.29120687576
 **  OPTIMIZATION CONVERGED  **

                    Orbital Energies (a.u.)
 --------------------------------------------------------------

 Alpha MOs
 -- Occupied --
-18.944 -18.939 -18.931 -18.924 -18.891 -18.886 -18.880 -18.879
-18.871 -18.869 -10.111 -10.102 -10.100 -10.093 -10.073 -10.066
-10.066 -10.064 -10.061 -10.059 -10.057 -10.042 -10.041 -10.037
-10.035 -10.034 -10.023 -10.022 -10.020 -10.019  -1.022  -1.013
 -1.010  -1.001  -0.973  -0.968  -0.944  -0.940  -0.934  -0.928
 -0.767  -0.761  -0.729  -0.723  -0.715  -0.707  -0.693  -0.663
 -0.646  -0.617  -0.598  -0.581  -0.549  -0.544  -0.540  -0.536
 -0.517  -0.510  -0.488  -0.480  -0.474  -0.466  -0.446  -0.437
 -0.433  -0.432  -0.427  -0.419  -0.412  -0.406  -0.405  -0.398
 -0.390  -0.380  -0.377  -0.367  -0.362  -0.361  -0.354  -0.347
 -0.345  -0.337  -0.335  -0.333  -0.329  -0.325  -0.317  -0.311
 -0.308  -0.307  -0.305  -0.299  -0.299  -0.292  -0.289  -0.279
 -0.272  -0.258  -0.253  -0.246  -0.238  -0.236  -0.232  -0.189
 -0.180  -0.171  -0.165  -0.160  -0.157  -0.153  -0.147  -0.146
 -0.142

          Ground-State Mulliken Net Atomic Charges

     Atom                 Charge (a.u.)
  ----------------------------------------
      1 O                    -0.208502
      2 C                     0.209584
      3 C                    -0.079302
      4 C                    -0.077652
      5 C                     0.222156
      6 O                    -0.164077
      7 C                    -0.047864
      8 C                    -0.057072
      9 O                    -0.171859
     10 C                     0.216959
     11 C                    -0.077444
     12 C                    -0.079423
     13 C                     0.210076
     14 O                    -0.213050
     15 O                    -0.167508
     16 O                    -0.174417
     17 O                    -0.217567
     18 C                    -0.152352
     19 C                     0.024558
     20 C                    -0.144705
     21 C                    -0.143643
     22 C                     0.025954
     23 O                    -0.187267
     24 H                     0.084370
     25 H                     0.085180
     26 H                     0.091253
     27 H                     0.077319
     28 H                     0.072916
     29 H                     0.077524
     30 H                     0.074165
     31 H                     0.082543
     32 O                    -0.223517
     33 C                    -0.128817
     34 C                     0.026250
     35 C                    -0.143656
     36 C                    -0.144338
     37 C                     0.025208
     38 O                    -0.185245
     39 H                     0.086742
     40 H                     0.085768
     41 H                     0.090555
     42 H                     0.083330
     43 H                     0.078572
     44 H                     0.074605
     45 H                     0.078331
     46 H                     0.073562
     47 H                     0.091011
     48 H                     0.090322
     49 H                     0.093113
     50 H                     0.110718
     51 H                     0.096513
     52 H                     0.071929
     53 H                     0.082189
     54 H                     0.104833
     55 H                     0.093348
     56 H                     0.097823
  ----------------------------------------
  Sum of atomic charges =    -0.000000

                    Cartesian Multipole Moments
 -----------------------------------------------------------------
    Charge (ESU x 10^10)
                -0.0000
    Dipole Moment (Debye)
         X      -0.5641      Y      -0.3194      Z      -2.4279
       Tot       2.5130
    Quadrupole Moments (Debye-Ang)
        XX    -138.1456     XY      -9.6821     YY    -161.2028
        XZ      -4.8552     YZ      -8.1470     ZZ    -166.9809

 Total job time:  164.04s(wall), 7829.23s(cpu)
        *  Thank you very much for using Q-Chem.  Have a nice day.  *
