 Q-Chem 5.0, Q-Chem, Inc., Pleasanton, CA (2017)
 Q-Chem 5.0.1 for Intel X86 EM64T Linux

User input:
--------------------------------------------------------------
$molecule
0  1
O -3.94934 -3.66094 2.70899
C -3.26408 -4.56952 2.26188
C -3.36658 -6.02376 2.66595
C -3.36795 -7.06811 1.5376
C -3.08802 -6.55426 0.14271
O -1.9673 -7.15434 -0.35661
C -1.30752 -6.37134 -1.35704
C -0.04293 -7.08058 -1.83025
O 0.31049 -6.62513 -3.14576
C -0.55615 -6.96363 -4.13242
C -0.403 -6.10975 -5.36858
C -1.56366 -6.20581 -6.36954
C -2.83762 -6.83754 -5.84546
O -3.53351 -7.63842 -6.45282
O -2.2136 -4.24224 1.46146
O -3.32979 -6.33748 -4.67649
O -1.29414 -7.93843 -4.04512
C -4.50508 -6.74642 -4.08178
C -0.43364 -4.58717 -5.07754
C 0.27981 -3.83971 -6.20378
C -0.71371 -4.01903 -7.33352
C -1.85719 -4.70893 -6.58054
O -1.76778 -4.19716 -5.27464
H 0.59301 -6.34836 -5.8046
H -1.28953 -6.72064 -7.31661
H 0.0126 -4.30618 -4.09917
H 0.29684 -2.76413 -5.91435
H 1.31671 -4.17171 -6.426
H -1.02092 -3.0123 -7.69399
H -0.35921 -4.63978 -8.18482
H -2.82658 -4.54313 -7.10132
O -3.77128 -5.729 -0.45095
C -1.92546 -2.96365 1.0328
C -2.13511 -6.48862 3.47391
C -2.52813 -7.64828 4.38405
C -2.7474 -8.74154 3.36122
C -2.27894 -8.026 2.08589
O -1.30059 -7.12331 2.53549
H -4.26386 -6.10545 3.3212
H -4.35441 -7.57709 1.46872
H -1.72962 -2.30226 1.9036
H -1.66717 -5.67539 4.07143
H -1.62542 -7.89958 4.98645
H -3.38235 -7.46225 5.06999
H -2.08104 -9.59571 3.61504
H -3.79699 -9.09325 3.26005
H -1.94893 -8.78844 1.34736
H -2.77218 -2.56146 0.43655
H -1.01946 -2.99056 0.39335
H -4.65706 -6.17211 -3.1454
H -4.45073 -7.82781 -3.83333
H -5.36406 -6.55752 -4.76033
H 0.77946 -6.89844 -1.10684
H -0.20629 -8.18177 -1.86516
H -1.05206 -5.34671 -1.00516
H -2.02329 -6.27331 -2.20047
$end

$opt
CONSTRAINT
tors           1           2           3           4    +134.469
tors           3           4           5           6    +119.499
tors           4           5           6           7    -154.723
tors           5           6           7           8    +178.008
tors           6           7           8           9    +156.525
tors           7           8           9          10     -66.787
tors           8           9          10          11    +161.053
tors           9          10          11          12    -165.509
tors          11          12          13          14    -137.688
ENDCONSTRAINT
$end

$rem
JOBTYPE                   OPT
METHOD                    B3LYP
DFT_D                     d3_op
BASIS                     STO-3G
GEOM_OPT_MAX_CYCLES       100
GEOM_OPT_TOL_GRADIENT     300
GEOM_OPT_TOL_DISPLACEMENT 1200
GEOM_OPT_TOL_ENERGY       100
SYMMETRY                  False
THRESH                    12
SCF_CONVERGENCE           8
MAX_SUB_FILE_NUM          128
MEM_STATIC                400
MEM_TOTAL                 4000
$end
--------------------------------------------------------------

   15   -1510.1513963186      9.51E-09 Convergence criterion met
 Total energy in the final basis set = -1510.15139632
   13   -1510.2207398933      8.99E-09 Convergence criterion met
 Total energy in the final basis set = -1510.22073989
   14   -1510.2578496027      5.29E-09 Convergence criterion met
 Total energy in the final basis set = -1510.25784960
   14   -1510.2730295740      5.58E-09 Convergence criterion met
 Total energy in the final basis set = -1510.27302957
   13   -1510.2764408902      6.19E-09 Convergence criterion met
 Total energy in the final basis set = -1510.27644089
   13   -1510.2760342595      8.64E-09 Convergence criterion met
 Total energy in the final basis set = -1510.27603426
   13   -1510.2777920560      3.78E-09 Convergence criterion met
 Total energy in the final basis set = -1510.27779206
   13   -1510.2778333996      3.54E-09 Convergence criterion met
   10   -1510.2791082342      9.88E-09 Convergence criterion met
 Total energy in the final basis set = -1510.27910823
   10   -1510.2791293404      9.20E-09 Convergence criterion met
 Total energy in the final basis set = -1510.27912934
    9   -1510.2791439078      8.41E-09 Convergence criterion met
 Total energy in the final basis set = -1510.27914391
    9   -1510.2791526683      6.09E-09 Convergence criterion met
 Total energy in the final basis set = -1510.27915267
    9   -1510.2791593551      7.06E-09 Convergence criterion met
 Total energy in the final basis set = -1510.27915936
    9   -1510.2791621023      4.35E-09 Convergence criterion met
 Total energy in the final basis set = -1510.27916210

             Standard Nuclear Orientation (Angstroms)
    I     Atom           X                Y                Z
 ----------------------------------------------------------------
    1      O      -4.0160366142    -2.6476639728     1.6533471898
    2      C      -3.7687530176    -1.6963262379     0.8817399784
    3      C      -4.4493618047    -0.2880997738     0.8758578965
    4      C      -3.4529932083     0.9439025236     0.7519260022
    5      C      -1.9449174942     0.4938785739     0.6871027321
    6      O      -1.3481114233     0.9214522219    -0.5419938554
    7      C      -0.2095071019     0.0368676867    -0.8849236385
    8      C       0.3687459033     0.5256976028    -2.2662819982
    9      O       1.7860028247     0.0896018715    -2.3811410112
   10      C       2.5509885997     0.7995409598    -1.3953416871
   11      C       3.9050985751     0.0682600908    -1.1331183442
   12      C       4.6031976867     0.5928592269     0.1826653167
   13      C       3.6060761866     1.3216356385     1.1670162169
   14      O       3.8210213857     2.3756113080     1.8028389988
   15      O      -2.8475011288    -1.7749331030    -0.2159935273
   16      O       2.4403784605     0.4965875831     1.3412360990
   17      O       2.1948805814     1.8891925198    -0.8918380616
   18      C       1.4758073480     1.1455684587     2.2602858364
   19      C       3.8485516434    -1.4981397374    -0.8763461981
   20      C       5.2719147434    -2.0714382729    -1.2453970358
   21      C       6.1364591900    -1.4864753619    -0.0653881008
   22      C       5.0247657503    -0.8002720405     0.8278302248
   23      O       3.8201722319    -1.6336350192     0.5972503973
   24      H       4.5487961559     0.2682629398    -2.0110104453
   25      H       5.4589016934     1.2595867547    -0.0183491999
   26      H       2.9835717711    -2.0108096159    -1.3403966382
   27      H       5.2569255369    -3.1730048069    -1.2236412781
   28      H       5.6189841180    -1.7405440222    -2.2375232605
   29      H       6.6484066012    -2.2832751446     0.4970683192
   30      H       6.8905177191    -0.7613266928    -0.4120996564
   31      H       5.2571843115    -0.7508909840     1.9092632371
   32      O      -1.3265903130    -0.1192234270     1.5892433067
   33      C      -2.1949889736    -3.1050815911    -0.2302219903
   34      C      -5.3313142006    -0.0814974492    -0.4360616736
   35      C      -6.3197142544     1.1236002219    -0.1804009875
   36      C      -5.3364204875     2.3476210633    -0.2866356690
   37      C      -3.9680318368     1.6176313604    -0.5866574870
   38      O      -4.3668264706     0.4573580634    -1.4186260671
   39      H      -5.0640106759    -0.2170034648     1.7901374735
   40      H      -3.5740592505     1.6174921131     1.6202694228
   41      H      -2.9373410913    -3.9231319509    -0.1395300007
   42      H      -5.8040626257    -1.0059971356    -0.8208698385
   43      H      -7.0960032433     1.1569442445    -0.9616405159
   44      H      -6.8114948298     1.0552404867     0.8031060788
   45      H      -5.6076582536     3.0127564143    -1.1218149783
   46      H      -5.2959459340     2.9423736145     0.6397727429
   47      H      -3.2053790131     2.2243215015    -1.1098659304
   48      H      -1.4614206307    -3.1993858741     0.5970492745
   49      H      -1.6699504692    -3.1824243603    -1.2000976612
   50      H       0.5198805078     0.5875615106     2.1506729884
   51      H       1.3204516115     2.2096885240     1.9914210955
   52      H       1.8261516763     1.0949399547     3.3114277002
   53      H      -0.1681347414     0.0640400393    -3.1174366615
   54      H       0.2826724856     1.6322602666    -2.3274032574
   55      H      -0.5589218310    -1.0135405071    -0.9572217741
   56      H       0.5863929731     0.0875587556    -0.1092462784
 ----------------------------------------------------------------

    9   -1510.2791629688      2.98E-09 Convergence criterion met
 Total energy in the final basis set = -1510.27916297
 Final energy is   -1510.27916296882
 **  OPTIMIZATION CONVERGED  **

                    Orbital Energies (a.u.)
 --------------------------------------------------------------

 Alpha MOs
 -- Occupied --
-18.938 -18.937 -18.932 -18.914 -18.890 -18.888 -18.884 -18.879
-18.878 -18.859 -10.106 -10.106 -10.102 -10.086 -10.076 -10.069
-10.066 -10.064 -10.061 -10.060 -10.059 -10.041 -10.040 -10.039
-10.038 -10.033 -10.023 -10.021 -10.021 -10.020  -1.020  -1.017
 -1.009  -0.994  -0.972  -0.969  -0.943  -0.939  -0.937  -0.920
 -0.766  -0.763  -0.728  -0.723  -0.715  -0.706  -0.695  -0.663
 -0.644  -0.617  -0.598  -0.581  -0.548  -0.546  -0.539  -0.537
 -0.518  -0.509  -0.490  -0.476  -0.470  -0.462  -0.448  -0.439
 -0.435  -0.432  -0.427  -0.415  -0.415  -0.407  -0.401  -0.398
 -0.391  -0.383  -0.370  -0.368  -0.366  -0.357  -0.349  -0.346
 -0.344  -0.341  -0.335  -0.331  -0.328  -0.325  -0.318  -0.315
 -0.311  -0.308  -0.304  -0.301  -0.299  -0.293  -0.281  -0.275
 -0.272  -0.260  -0.257  -0.250  -0.237  -0.236  -0.233  -0.184
 -0.181  -0.173  -0.161  -0.160  -0.159  -0.152  -0.146  -0.141
 -0.138

          Ground-State Mulliken Net Atomic Charges

     Atom                 Charge (a.u.)
  ----------------------------------------
      1 O                    -0.208903
      2 C                     0.210458
      3 C                    -0.079574
      4 C                    -0.078131
      5 C                     0.219909
      6 O                    -0.173282
      7 C                    -0.051711
      8 C                    -0.049270
      9 O                    -0.173355
     10 C                     0.215374
     11 C                    -0.080290
     12 C                    -0.078774
     13 C                     0.212385
     14 O                    -0.217210
     15 O                    -0.170554
     16 O                    -0.175810
     17 O                    -0.206845
     18 C                    -0.139029
     19 C                     0.025395
     20 C                    -0.142043
     21 C                    -0.145014
     22 C                     0.025401
     23 O                    -0.184900
     24 H                     0.085050
     25 H                     0.085366
     26 H                     0.086650
     27 H                     0.077710
     28 H                     0.073133
     29 H                     0.078123
     30 H                     0.073837
     31 H                     0.083433
     32 O                    -0.217113
     33 C                    -0.130363
     34 C                     0.026066
     35 C                    -0.143651
     36 C                    -0.144440
     37 C                     0.024566
     38 O                    -0.187510
     39 H                     0.086858
     40 H                     0.085077
     41 H                     0.093695
     42 H                     0.082689
     43 H                     0.078320
     44 H                     0.074568
     45 H                     0.078287
     46 H                     0.073926
     47 H                     0.092601
     48 H                     0.092237
     49 H                     0.088632
     50 H                     0.101261
     51 H                     0.087020
     52 H                     0.080334
     53 H                     0.093039
     54 H                     0.098228
     55 H                     0.087617
     56 H                     0.100530
  ----------------------------------------
  Sum of atomic charges =     0.000000

                    Cartesian Multipole Moments
 -----------------------------------------------------------------
    Charge (ESU x 10^10)
                 0.0000
    Dipole Moment (Debye)
         X      -0.6838      Y      -0.6278      Z      -2.2071
       Tot       2.3943
    Quadrupole Moments (Debye-Ang)
        XX    -141.4839     XY     -13.5750     YY    -163.8417
        XZ      -6.4351     YZ       4.1034     ZZ    -163.4071

 Total job time:  58.45s(wall), 2782.60s(cpu)
        *  Thank you very much for using Q-Chem.  Have a nice day.  *
