 Q-Chem 5.0, Q-Chem, Inc., Pleasanton, CA (2017)
 Q-Chem 5.0.1 for Intel X86 EM64T Linux

User input:
--------------------------------------------------------------
$molecule
0  1
O 4.8675116169 -2.9164047271 -0.5679417459
C 4.3015700698 -1.8561288725 -0.2198338362
C 4.8381771364 -0.4095818393 -0.4757780403
C 3.883962639 0.6378297653 -1.2013582498
C 2.4022988679 0.160545321 -1.4282988175
O 1.6069918479 0.487582724 -0.2811919006
C 0.5231814397 -0.5051358352 -0.0892649393
C -0.1604633526 -0.1192664721 1.2657057415
O -1.4504530741 -0.8447240263 1.3760388867
C -2.5390067276 0.0848088157 1.4063201628
C -3.8778044717 -0.6480997958 1.0394193278
C -4.9394496969 0.323264992 0.3698242707
C -4.4660169546 1.8160379666 0.2343146139
O -4.9099073858 2.8005287537 0.863498489
O 3.1087486725 -1.82481551 0.5726743013
O -3.495514689 1.8955836935 -0.8186638156
O -2.4041271417 1.3082780106 1.6372046852
C -2.9842950554 3.2796170557 -0.9230411623
C -3.6859436449 -1.7297247136 -0.1058487904
C -4.9738703416 -2.643071481 -0.1471737239
C -6.0090098071 -1.6783449738 -0.8357429829
C -5.1276113152 -0.3840291135 -1.0429551486
O -3.7832517068 -0.9268386753 -1.3456909627
H -4.2880683661 -1.1090538929 1.9577227759
H -5.8801210729 0.3298870553 0.947576524
H -2.7165284251 -2.2616572261 -0.0570937076
H -4.7899556197 -3.5424284009 -0.7564127098
H -5.2906783326 -2.9574571102 0.8601830471
H -6.3457152768 -2.0739318555 -1.807249607
H -6.8928944292 -1.4820356557 -0.208011408
H -5.463415702 0.291731277 -1.8528975655
O 1.983627588 -0.4942821739 -2.4084780107
C 2.701181177 -3.2106893495 0.9097825495
C 5.1630658513 0.3689189521 0.8795199754
C 6.2468411829 1.4703344504 0.5566423805
C 5.3792812162 2.5134508062 -0.2404765447
C 3.9487876893 1.8449503112 -0.1700846094
O 3.9428360242 1.1586339594 1.143004068
H 5.7585652656 -0.5393415916 -1.0730499566
H 4.3059686098 0.9088966061 -2.1858236184
H 3.5222280621 -3.7672106587 1.4048184107
H 5.3949732571 -0.28695573 1.7410732692
H 6.6405861141 1.9026011575 1.4904945381
H 7.089571946 1.073632017 -0.0315709223
H 5.3694484361 3.4962445884 0.2565794248
H 5.7222940925 2.6465157466 -1.2789419021
H 3.0970325922 2.5478119254 -0.2421492565
H 2.3889693006 -3.7758506062 0.0075269299
H 1.8445533128 -3.1174622323 1.602320133
H -2.2911445417 3.2864077573 -1.7842802328
H -2.4377309153 3.5740513266 -0.0034897962
H -3.8021255806 4.0084972937 -1.0965329698
H 0.4874933593 -0.4063889851 2.1197189637
H -0.3553987867 0.9740085381 1.3088620778
H 0.9419339024 -1.5299191886 -0.0545302269
H -0.2265255581 -0.4540486457 -0.9118644687
$end

$rem
JOBTYPE                   OPT
METHOD                    B3LYP
DFT_D                     d3_op
BASIS                     STO-3G
GEOM_OPT_MAX_CYCLES       100
GEOM_OPT_TOL_GRADIENT     300
GEOM_OPT_TOL_DISPLACEMENT 1200
GEOM_OPT_TOL_ENERGY       100
SYMMETRY                  False
THRESH                    12
SCF_CONVERGENCE           8
MAX_SUB_FILE_NUM          128
MEM_STATIC                400
MEM_TOTAL                 4000
$end
--------------------------------------------------------------

   16   -1510.2740540512      5.84E-09 Convergence criterion met
 Total energy in the final basis set = -1510.27405405
   14   -1510.2781919610      8.08E-09 Convergence criterion met
 Total energy in the final basis set = -1510.27819196
   13   -1510.2816350510      8.14E-09 Convergence criterion met
 Total energy in the final basis set = -1510.28163505
   13   -1510.2827152428      4.07E-09 Convergence criterion met
 Total energy in the final basis set = -1510.28271524
   14   -1510.2834626649      3.55E-09 Convergence criterion met
 Total energy in the final basis set = -1510.28346266
   13   -1510.2835063453      3.13E-09 Convergence criterion met
 Total energy in the final basis set = -1510.28350635
   13   -1510.2842705566      9.37E-09 Convergence criterion met
 Total energy in the final basis set = -1510.28427056
   14   -1510.2845957521      6.74E-09 Convergence criterion met
   13   -1510.2875440842      2.82E-09 Convergence criterion met
 Total energy in the final basis set = -1510.28754408
   12   -1510.2875859873      5.46E-09 Convergence criterion met
 Total energy in the final basis set = -1510.28758599
   12   -1510.2876244345      3.61E-09 Convergence criterion met
 Total energy in the final basis set = -1510.28762443
   12   -1510.2876396107      2.93E-09 Convergence criterion met
 Total energy in the final basis set = -1510.28763961
   12   -1510.2876532544      2.22E-09 Convergence criterion met
 Total energy in the final basis set = -1510.28765325
   12   -1510.2876681943      2.86E-09 Convergence criterion met
 Total energy in the final basis set = -1510.28766819

             Standard Nuclear Orientation (Angstroms)
    I     Atom           X                Y                Z
 ----------------------------------------------------------------
    1      O       4.7808922046    -3.0021181449    -0.4639278647
    2      C       4.5568035046    -1.9088039239     0.0984556548
    3      C       5.1268631071    -0.5046404853    -0.3138571722
    4      C       4.0253580158     0.5212454899    -0.8168076548
    5      C       2.5865353790    -0.0999441398    -0.8377989009
    6      O       1.6145528278     0.9423072141    -0.7131040319
    7      C       0.2477557936     0.3677347181    -0.6810914607
    8      C      -0.0846637042    -0.2100073738     0.7478222273
    9      O      -1.4024646850    -0.8911356600     0.7567495328
   10      C      -2.4637410689     0.0673151138     0.7707461180
   11      C      -3.8301204316    -0.6988887936     0.7337536507
   12      C      -5.0629684331     0.2384930696     0.3948701975
   13      C      -4.6910634419     1.7514738859     0.1734824791
   14      O      -4.9288051871     2.6989334877     0.9532706790
   15      O       3.7866544551    -1.7586688074     1.2999933753
   16      O      -4.1310577836     1.9027463373    -1.1384797557
   17      O      -2.2895064479     1.3058475040     0.8153309033
   18      C      -3.7226600841     3.3086956346    -1.3471156979
   19      C      -3.8985619161    -1.7427460234    -0.4619476936
   20      C      -5.1050024620    -2.7262596935    -0.1945967700
   21      C      -6.3307309915    -1.7992754361    -0.5345446223
   22      C      -5.5981898479    -0.4564254672    -0.9312370784
   23      O      -4.3629441284    -0.9228106857    -1.6026721361
   24      H      -3.9655241995    -1.2043826794     1.7079513676
   25      H      -5.8129254068     0.2028600928     1.2047019566
   26      H      -2.9289975054    -2.2256739004    -0.6914590921
   27      H      -5.0527809293    -3.5911841731    -0.8747736584
   28      H      -5.1207583558    -3.0936223281     0.8440346481
   29      H      -6.9051509325    -2.1896801962    -1.3895600215
   30      H      -7.0148292580    -1.6642740750     0.3183806622
   31      H      -6.1719936540     0.2131608623    -1.6002921945
   32      O       2.2977930171    -1.3109601598    -0.9676090868
   33      C       3.1658791187    -3.0526110482     1.6590481383
   34      C       5.7169728710     0.2926948373     0.9277908951
   35      C       6.6096561694     1.4768508638     0.3803620894
   36      C       5.5076360493     2.4895898132    -0.1062657802
   37      C       4.1892613704     1.6939346993     0.2418301940
   38      O       4.5331803365     0.9806685022     1.4921415221
   39      H       5.8916522854    -0.6743501931    -1.0913817211
   40      H       4.2535198116     0.8757131003    -1.8396272192
   41      H       3.9256265673    -3.8447552360     1.8189305469
   42      H       6.1964018582    -0.3439606339     1.6960541798
   43      H       7.2220953776     1.9044615849     1.1899137619
   44      H       7.2761922628     1.1497942613    -0.4335066899
   45      H       5.5477366568     3.4336134597     0.4600021729
   46      H       5.5832020592     2.7187330836    -1.1811825806
   47      H       3.2774469911     2.3072014596     0.3772617753
   48      H       2.4629207930    -3.3924146409     0.8704688689
   49      H       2.6116861926    -2.8759797099     2.5993716386
   50      H      -3.3521652973     3.3691919330    -2.3870685587
   51      H      -2.9129089711     3.5986667571    -0.6462172090
   52      H      -4.5725366494     4.0087508781    -1.2131611732
   53      H       0.6558285619    -0.9907254685     1.0148563833
   54      H      -0.0531195644     0.6083804414     1.4980522178
   55      H       0.1384730509    -0.4387296471    -1.4371117679
   56      H      -0.4408722042     1.2030970674    -0.9182253841
 ----------------------------------------------------------------

   11   -1510.2876674572      3.32E-09 Convergence criterion met
 Total energy in the final basis set = -1510.28766746
 Final energy is   -1510.28766745725
 **  OPTIMIZATION CONVERGED  **

                    Orbital Energies (a.u.)
 --------------------------------------------------------------

 Alpha MOs
 -- Occupied --
-18.945 -18.945 -18.923 -18.920 -18.889 -18.888 -18.888 -18.885
-18.864 -18.860 -10.110 -10.109 -10.092 -10.090 -10.077 -10.076
-10.061 -10.060 -10.060 -10.059 -10.056 -10.054 -10.042 -10.042
-10.035 -10.034 -10.021 -10.021 -10.020 -10.020  -1.025  -1.021
 -1.001  -0.998  -0.971  -0.970  -0.948  -0.945  -0.926  -0.924
 -0.765  -0.763  -0.729  -0.723  -0.716  -0.707  -0.696  -0.655
 -0.652  -0.624  -0.597  -0.585  -0.546  -0.546  -0.538  -0.537
 -0.514  -0.513  -0.490  -0.478  -0.469  -0.464  -0.450  -0.438
 -0.434  -0.433  -0.430  -0.410  -0.407  -0.406  -0.403  -0.400
 -0.394  -0.389  -0.371  -0.367  -0.364  -0.361  -0.346  -0.345
 -0.340  -0.338  -0.335  -0.332  -0.330  -0.328  -0.322  -0.319
 -0.312  -0.306  -0.306  -0.303  -0.298  -0.285  -0.281  -0.276
 -0.275  -0.270  -0.254  -0.245  -0.243  -0.235  -0.235  -0.198
 -0.177  -0.167  -0.164  -0.164  -0.162  -0.145  -0.145  -0.143
 -0.140

          Ground-State Mulliken Net Atomic Charges

     Atom                 Charge (a.u.)
  ----------------------------------------
      1 O                    -0.215127
      2 C                     0.212267
      3 C                    -0.080911
      4 C                    -0.078055
      5 C                     0.214591
      6 O                    -0.169088
      7 C                    -0.052449
      8 C                    -0.051304
      9 O                    -0.169735
     10 C                     0.214624
     11 C                    -0.078147
     12 C                    -0.081536
     13 C                     0.213015
     14 O                    -0.218298
     15 O                    -0.172743
     16 O                    -0.171768
     17 O                    -0.208905
     18 C                    -0.128315
     19 C                     0.024320
     20 C                    -0.143802
     21 C                    -0.144363
     22 C                     0.026671
     23 O                    -0.187826
     24 H                     0.086952
     25 H                     0.083381
     26 H                     0.088578
     27 H                     0.078402
     28 H                     0.073486
     29 H                     0.077871
     30 H                     0.073745
     31 H                     0.085484
     32 O                    -0.211887
     33 C                    -0.129336
     34 C                     0.026380
     35 C                    -0.144206
     36 C                    -0.143869
     37 C                     0.023879
     38 O                    -0.187412
     39 H                     0.084048
     40 H                     0.086470
     41 H                     0.087496
     42 H                     0.084352
     43 H                     0.078007
     44 H                     0.073886
     45 H                     0.078358
     46 H                     0.073322
     47 H                     0.090736
     48 H                     0.090846
     49 H                     0.086833
     50 H                     0.086734
     51 H                     0.090494
     52 H                     0.086775
     53 H                     0.097637
     54 H                     0.095016
     55 H                     0.095847
     56 H                     0.098580
  ----------------------------------------
  Sum of atomic charges =     0.000000

                    Cartesian Multipole Moments
 -----------------------------------------------------------------
    Charge (ESU x 10^10)
                -0.0000
    Dipole Moment (Debye)
         X       0.1663      Y      -0.0257      Z      -0.1293
       Tot       0.2122
    Quadrupole Moments (Debye-Ang)
        XX    -147.4745     XY      18.1891     YY    -163.4608
        XZ      -0.4564     YZ     -12.3776     ZZ    -161.8229

 Total job time:  92.89s(wall), 4416.16s(cpu)
        *  Thank you very much for using Q-Chem.  Have a nice day.  *
