 Q-Chem 5.0, Q-Chem, Inc., Pleasanton, CA (2017)
 Q-Chem 5.0.1 for Intel X86 EM64T Linux

User input:
--------------------------------------------------------------
$molecule
0  1
O -3.94934 -3.66094 2.70899
C -3.26408 -4.56952 2.26188
C -3.36658 -6.02376 2.66595
C -3.56015 -7.05364 1.54091
C -3.45165 -6.53367 0.12459
O -2.1506 -6.58015 -0.28837
C -1.81771 -5.54427 -1.21863
C -0.32305 -5.56981 -1.52106
O -0.04277 -4.75828 -2.67247
C 0.45896 -5.42041 -3.74439
C 0.31002 -4.64972 -5.03455
C 0.20799 -5.51638 -6.29818
C -0.08747 -6.98516 -6.07
O 0.69488 -7.90415 -6.26485
O -2.19298 -4.23074 1.49962
O -1.27777 -7.27588 -5.47666
O 1.27266 -6.32823 -3.62535
C -1.68705 -8.5446 -5.12439
C -0.98843 -3.81651 -5.18613
C -0.74934 -2.67951 -6.17989
C -0.65394 -3.45242 -7.48126
C -0.99867 -4.86236 -6.98835
O -1.87186 -4.64184 -5.9061
H 1.18101 -3.95713 -5.07696
H 1.14917 -5.46902 -6.8899
H -1.37891 -3.40133 -4.23265
H -1.68108 -2.06929 -6.19936
H 0.11354 -2.01559 -5.95754
H -1.43466 -3.06957 -8.17528
H 0.34175 -3.42997 -7.97512
H -1.39479 -5.4883 -7.81826
O -4.31671 -5.8357 -0.39142
C -1.83177 -2.93008 1.205
C -2.08113 -6.5487 3.33206
C -2.41024 -7.7417 4.22784
C -2.71391 -8.79906 3.18716
C -2.40409 -8.02138 1.90269
O -1.36665 -7.14879 2.2814
H -4.20412 -6.0766 3.39826
H -4.53218 -7.59134 1.60116
H -1.61414 -2.37216 2.14072
H -1.54034 -5.76803 3.91098
H -1.47293 -8.02519 4.75824
H -3.21449 -7.56411 4.97385
H -1.99045 -9.6348 3.31572
H -3.75337 -9.19232 3.19675
H -2.17426 -8.72923 1.07584
H -2.64686 -2.42314 0.64544
H -0.91664 -2.93759 0.57794
H -2.69369 -8.48604 -4.66212
H -0.98063 -8.98321 -4.38756
H -1.74295 -9.19237 -6.02522
H 0.25328 -5.20913 -0.64303
H -0.05188 -6.63909 -1.68303
H -2.11308 -4.53064 -0.89207
H -2.35776 -5.75993 -2.1688
$end

$opt
CONSTRAINT
tors           1           2           3           4    +126.385
tors           3           4           5           6     +88.138
tors           4           5           6           7    -148.878
tors           5           6           7           8    +174.105
tors           6           7           8           9    +166.387
tors           7           8           9          10    -116.668
tors           8           9          10          11    +161.053
tors           9          10          11          12    -151.959
tors          11          12          13          14    -110.773
ENDCONSTRAINT
$end

$rem
JOBTYPE                   OPT
METHOD                    B3LYP
DFT_D                     d3_op
BASIS                     STO-3G
GEOM_OPT_MAX_CYCLES       100
GEOM_OPT_TOL_GRADIENT     300
GEOM_OPT_TOL_DISPLACEMENT 1200
GEOM_OPT_TOL_ENERGY       100
SYMMETRY                  False
THRESH                    12
SCF_CONVERGENCE           8
MAX_SUB_FILE_NUM          128
MEM_STATIC                400
MEM_TOTAL                 4000
$end
--------------------------------------------------------------

   15   -1510.1393445784      7.57E-09 Convergence criterion met
 Total energy in the final basis set = -1510.13934458
   13   -1510.2088474071      9.17E-09 Convergence criterion met
 Total energy in the final basis set = -1510.20884741
   14   -1510.2460698191      7.73E-09 Convergence criterion met
 Total energy in the final basis set = -1510.24606982
   14   -1510.2626195550      3.65E-09 Convergence criterion met
 Total energy in the final basis set = -1510.26261955
   13   -1510.2689351777      9.82E-09 Convergence criterion met
 Total energy in the final basis set = -1510.26893518
    2   -1510.2689351777      7.81E-09 Convergence criterion met
 Total energy in the final basis set = -1510.26893518
   13   -1510.2713231981      7.72E-09 Convergence criterion met
 Total energy in the final basis set = -1510.27132320
   13   -1510.2725151725      7.24E-09 Convergence criterion met
   11   -1510.2739866891      5.73E-09 Convergence criterion met
 Total energy in the final basis set = -1510.27398669
   11   -1510.2740098455      4.96E-09 Convergence criterion met
 Total energy in the final basis set = -1510.27400985
   11   -1510.2740246698      2.76E-09 Convergence criterion met
 Total energy in the final basis set = -1510.27402467
    9   -1510.2740354053      9.93E-09 Convergence criterion met
 Total energy in the final basis set = -1510.27403541
    9   -1510.2740388157      6.45E-09 Convergence criterion met
 Total energy in the final basis set = -1510.27403882
    9   -1510.2740400442      5.65E-09 Convergence criterion met
 Total energy in the final basis set = -1510.27404004

             Standard Nuclear Orientation (Angstroms)
    I     Atom           X                Y                Z
 ----------------------------------------------------------------
    1      O       4.8675116169    -2.9164047271    -0.5679417459
    2      C       4.3015700698    -1.8561288725    -0.2198338362
    3      C       4.8381771364    -0.4095818393    -0.4757780403
    4      C       3.8839626390     0.6378297653    -1.2013582498
    5      C       2.4022988679     0.1605453210    -1.4282988175
    6      O       1.6069918479     0.4875827240    -0.2811919006
    7      C       0.5231814397    -0.5051358352    -0.0892649393
    8      C      -0.1604633526    -0.1192664721     1.2657057415
    9      O      -1.4504530741    -0.8447240263     1.3760388867
   10      C      -2.5390067276     0.0848088157     1.4063201628
   11      C      -3.8778044717    -0.6480997958     1.0394193278
   12      C      -4.9394496969     0.3232649920     0.3698242707
   13      C      -4.4660169546     1.8160379666     0.2343146139
   14      O      -4.9099073858     2.8005287537     0.8634984890
   15      O       3.1087486725    -1.8248155100     0.5726743013
   16      O      -3.4955146890     1.8955836935    -0.8186638156
   17      O      -2.4041271417     1.3082780106     1.6372046852
   18      C      -2.9842950554     3.2796170557    -0.9230411623
   19      C      -3.6859436449    -1.7297247136    -0.1058487904
   20      C      -4.9738703416    -2.6430714810    -0.1471737239
   21      C      -6.0090098071    -1.6783449738    -0.8357429829
   22      C      -5.1276113152    -0.3840291135    -1.0429551486
   23      O      -3.7832517068    -0.9268386753    -1.3456909627
   24      H      -4.2880683661    -1.1090538929     1.9577227759
   25      H      -5.8801210729     0.3298870553     0.9475765240
   26      H      -2.7165284251    -2.2616572261    -0.0570937076
   27      H      -4.7899556197    -3.5424284009    -0.7564127098
   28      H      -5.2906783326    -2.9574571102     0.8601830471
   29      H      -6.3457152768    -2.0739318555    -1.8072496070
   30      H      -6.8928944292    -1.4820356557    -0.2080114080
   31      H      -5.4634157020     0.2917312770    -1.8528975655
   32      O       1.9836275880    -0.4942821739    -2.4084780107
   33      C       2.7011811770    -3.2106893495     0.9097825495
   34      C       5.1630658513     0.3689189521     0.8795199754
   35      C       6.2468411829     1.4703344504     0.5566423805
   36      C       5.3792812162     2.5134508062    -0.2404765447
   37      C       3.9487876893     1.8449503112    -0.1700846094
   38      O       3.9428360242     1.1586339594     1.1430040680
   39      H       5.7585652656    -0.5393415916    -1.0730499566
   40      H       4.3059686098     0.9088966061    -2.1858236184
   41      H       3.5222280621    -3.7672106587     1.4048184107
   42      H       5.3949732571    -0.2869557300     1.7410732692
   43      H       6.6405861141     1.9026011575     1.4904945381
   44      H       7.0895719460     1.0736320170    -0.0315709223
   45      H       5.3694484361     3.4962445884     0.2565794248
   46      H       5.7222940925     2.6465157466    -1.2789419021
   47      H       3.0970325922     2.5478119254    -0.2421492565
   48      H       2.3889693006    -3.7758506062     0.0075269299
   49      H       1.8445533128    -3.1174622323     1.6023201330
   50      H      -2.2911445417     3.2864077573    -1.7842802328
   51      H      -2.4377309153     3.5740513266    -0.0034897962
   52      H      -3.8021255806     4.0084972937    -1.0965329698
   53      H       0.4874933593    -0.4063889851     2.1197189637
   54      H      -0.3553987867     0.9740085381     1.3088620778
   55      H       0.9419339024    -1.5299191886    -0.0545302269
   56      H      -0.2265255581    -0.4540486457    -0.9118644687
 ----------------------------------------------------------------

    9   -1510.2740393973      2.69E-09 Convergence criterion met
 Total energy in the final basis set = -1510.27403940
 Final energy is   -1510.27403939732
 **  OPTIMIZATION CONVERGED  **

                    Orbital Energies (a.u.)
 --------------------------------------------------------------

 Alpha MOs
 -- Occupied --
-18.941 -18.937 -18.925 -18.920 -18.890 -18.887 -18.887 -18.879
-18.877 -18.861 -10.107 -10.103 -10.099 -10.089 -10.069 -10.069
-10.068 -10.063 -10.060 -10.059 -10.058 -10.053 -10.041 -10.041
-10.039 -10.033 -10.022 -10.021 -10.020 -10.019  -1.019  -1.017
 -1.006  -0.998  -0.972  -0.969  -0.944  -0.940  -0.933  -0.924
 -0.764  -0.762  -0.728  -0.723  -0.714  -0.707  -0.694  -0.666
 -0.652  -0.614  -0.599  -0.577  -0.547  -0.544  -0.539  -0.537
 -0.519  -0.512  -0.491  -0.476  -0.468  -0.462  -0.450  -0.439
 -0.434  -0.432  -0.425  -0.418  -0.414  -0.408  -0.403  -0.401
 -0.398  -0.375  -0.371  -0.367  -0.363  -0.359  -0.349  -0.349
 -0.343  -0.341  -0.334  -0.332  -0.330  -0.328  -0.321  -0.312
 -0.309  -0.307  -0.306  -0.304  -0.296  -0.290  -0.281  -0.275
 -0.274  -0.259  -0.254  -0.245  -0.243  -0.236  -0.234  -0.184
 -0.180  -0.170  -0.165  -0.163  -0.159  -0.149  -0.144  -0.144
 -0.140

          Ground-State Mulliken Net Atomic Charges

     Atom                 Charge (a.u.)
  ----------------------------------------
      1 O                    -0.211014
      2 C                     0.205481
      3 C                    -0.080100
      4 C                    -0.077917
      5 C                     0.209643
      6 O                    -0.173131
      7 C                    -0.045237
      8 C                    -0.051583
      9 O                    -0.176151
     10 C                     0.217026
     11 C                    -0.077501
     12 C                    -0.081085
     13 C                     0.212452
     14 O                    -0.216112
     15 O                    -0.169095
     16 O                    -0.172220
     17 O                    -0.207166
     18 C                    -0.128531
     19 C                     0.023454
     20 C                    -0.144120
     21 C                    -0.144077
     22 C                     0.026501
     23 O                    -0.188000
     24 H                     0.085800
     25 H                     0.083559
     26 H                     0.089591
     27 H                     0.077933
     28 H                     0.072958
     29 H                     0.077889
     30 H                     0.073717
     31 H                     0.085127
     32 O                    -0.208506
     33 C                    -0.130473
     34 C                     0.026558
     35 C                    -0.143210
     36 C                    -0.145080
     37 C                     0.026898
     38 O                    -0.184230
     39 H                     0.086805
     40 H                     0.084206
     41 H                     0.091834
     42 H                     0.082455
     43 H                     0.078311
     44 H                     0.074404
     45 H                     0.078291
     46 H                     0.073861
     47 H                     0.087224
     48 H                     0.090154
     49 H                     0.090596
     50 H                     0.087732
     51 H                     0.091032
     52 H                     0.086959
     53 H                     0.089888
     54 H                     0.105569
     55 H                     0.090430
     56 H                     0.090198
  ----------------------------------------
  Sum of atomic charges =     0.000000

                    Cartesian Multipole Moments
 -----------------------------------------------------------------
    Charge (ESU x 10^10)
                 0.0000
    Dipole Moment (Debye)
         X       0.7778      Y      -1.0458      Z       0.6969
       Tot       1.4779
    Quadrupole Moments (Debye-Ang)
        XX    -146.5752     XY      18.0686     YY    -159.0869
        XZ       3.9810     YZ     -12.7302     ZZ    -165.3354

 Total job time:  59.18s(wall), 2814.68s(cpu)
        *  Thank you very much for using Q-Chem.  Have a nice day.  *
