 Q-Chem 5.0, Q-Chem, Inc., Pleasanton, CA (2017)
 Q-Chem 5.0.1 for Intel X86 EM64T Linux

User input:
--------------------------------------------------------------
$molecule
0  1
O -3.94934 -3.66094 2.70899
C -3.26408 -4.56952 2.26188
C -3.36658 -6.02376 2.66595
C -3.36795 -7.06811 1.5376
C -3.08802 -6.55426 0.14271
O -2.66202 -7.57959 -0.65268
C -2.24037 -7.14758 -1.9507
C -1.78027 -8.34289 -2.77875
O -2.24388 -8.2087 -4.13149
C -3.30868 -8.98068 -4.46225
C -4.02865 -8.49231 -5.69668
C -5.35753 -7.77102 -5.42818
C -5.59385 -7.33234 -3.99695
O -6.52206 -7.69467 -3.28863
O -2.15369 -4.22392 1.55172
O -4.95243 -6.19545 -3.62325
O -3.77245 -9.87492 -3.76512
C -5.38667 -5.36374 -2.60925
C -3.30958 -7.40653 -6.54019
C -3.81133 -7.46308 -7.9835
C -5.2199 -6.9294 -7.81597
C -5.18863 -6.5376 -6.33437
O -3.8463 -6.18341 -6.10107
H -4.14319 -9.38647 -6.35033
H -6.22335 -8.41015 -5.71077
H -2.20127 -7.49059 -6.52899
H -3.21632 -6.71701 -8.55822
H -3.7352 -8.45083 -8.48678
H -5.33577 -6.0338 -8.46576
H -6.03225 -7.65979 -8.02171
H -5.94788 -5.75412 -6.1171
O -3.38141 -5.44482 -0.28238
C -1.82666 -2.93445 1.18693
C -2.13 -6.44736 3.47744
C -2.45948 -7.66604 4.33565
C -2.54067 -8.73686 3.27279
C -2.16435 -7.92311 2.02915
O -1.2551 -6.96838 2.51304
H -4.27083 -6.10982 3.30989
H -4.28557 -7.69487 1.48885
H -1.69015 -2.30336 2.09103
H -1.72526 -5.62953 4.11412
H -1.57498 -7.87132 4.98041
H -3.36367 -7.55778 4.9726
H -1.75508 -9.49683 3.48343
H -3.52927 -9.23403 3.16918
H -1.76075 -8.62029 1.26445
H -2.62579 -2.5056 0.54521
H -0.8768 -2.9491 0.61408
H -4.67304 -4.5222 -2.49636
H -5.45814 -5.92352 -1.65351
H -6.38558 -4.94905 -2.86262
H -0.67891 -8.47549 -2.73261
H -2.18023 -9.25637 -2.28619
H -1.44723 -6.36697 -1.92393
H -3.1114 -6.72116 -2.44123
$end

$opt
CONSTRAINT
tors           1           2           3           4    +134.469
tors           3           4           5           6    +158.929
tors           4           5           6           7    -173.732
tors           5           6           7           8    -180.000
tors           6           7           8           9    +139.359
tors           7           8           9          10    -103.293
tors           8           9          10          11    +161.053
tors           9          10          11          12    -104.223
tors          11          12          13          14    -119.972
ENDCONSTRAINT
$end

$rem
JOBTYPE                   OPT
METHOD                    B3LYP
DFT_D                     d3_op
BASIS                     STO-3G
GEOM_OPT_MAX_CYCLES       100
GEOM_OPT_TOL_GRADIENT     300
GEOM_OPT_TOL_DISPLACEMENT 1200
GEOM_OPT_TOL_ENERGY       100
SYMMETRY                  False
THRESH                    12
SCF_CONVERGENCE           8
MAX_SUB_FILE_NUM          128
MEM_STATIC                400
MEM_TOTAL                 4000
$end
--------------------------------------------------------------

   15   -1510.1442171266      7.16E-09 Convergence criterion met
 Total energy in the final basis set = -1510.14421713
   13   -1510.2141169882      9.62E-09 Convergence criterion met
 Total energy in the final basis set = -1510.21411699
   14   -1510.2514265432      1.96E-09 Convergence criterion met
 Total energy in the final basis set = -1510.25142654
    2   -1510.2514265430      2.88E-09 Convergence criterion met
 Total energy in the final basis set = -1510.25142654
   14   -1510.2665307423      3.82E-09 Convergence criterion met
 Total energy in the final basis set = -1510.26653074
   14   -1510.2721996692      3.07E-09 Convergence criterion met
 Total energy in the final basis set = -1510.27219967
   13   -1510.2759355777      7.33E-09 Convergence criterion met
 Total energy in the final basis set = -1510.27593558
   13   -1510.2779651635      3.49E-09 Convergence criterion met
   10   -1510.2813526013      7.96E-09 Convergence criterion met
 Total energy in the final basis set = -1510.28135260
   11   -1510.2813704228      7.00E-09 Convergence criterion met
 Total energy in the final basis set = -1510.28137042
   11   -1510.2813824290      4.49E-09 Convergence criterion met
 Total energy in the final basis set = -1510.28138243
   10   -1510.2813863674      8.21E-09 Convergence criterion met
 Total energy in the final basis set = -1510.28138637
    9   -1510.2813879061      4.95E-09 Convergence criterion met
 Total energy in the final basis set = -1510.28138791
    9   -1510.2813891531      2.18E-09 Convergence criterion met
 Total energy in the final basis set = -1510.28138915

             Standard Nuclear Orientation (Angstroms)
    I     Atom           X                Y                Z
 ----------------------------------------------------------------
    1      O       4.4577286432    -3.0379153885    -0.0848568009
    2      C       4.1949892018    -1.8553449380     0.2240585798
    3      C       4.3214499688    -0.5953000634    -0.7042257926
    4      C       3.0802739252     0.3841112630    -0.6515305183
    5      C       1.8254375335    -0.2338607681     0.0577750510
    6      O       0.9744727195     0.8227611733     0.4889220179
    7      C      -0.1589208670     0.3021547755     1.3012560338
    8      C      -1.0076828648     1.5581252384     1.7063308167
    9      O      -2.4498706352     1.2385010692     1.6035701584
   10      C      -3.0196918031     1.8119836930     0.4213312745
   11      C      -4.3690621314     1.0825841263     0.0839750627
   12      C      -4.2906254403     0.0542287116    -1.1284894640
   13      C      -2.9215683226    -0.1230139893    -1.8673547264
   14      O      -2.7207229041     0.0977447145    -3.0823825198
   15      O       3.8806171324    -1.4222576441     1.5543003820
   16      O      -1.9411420550    -0.7243871516    -1.0084538621
   17      O      -2.4722119033     2.7108851560    -0.2553183486
   18      C      -0.7636681861    -1.1178967669    -1.8233986361
   19      C      -4.8717456747     0.1303406707     1.2503729100
   20      C      -6.3979549403    -0.1997051751     1.0065094544
   21      C      -6.3012049957    -1.2339817578    -0.1756000925
   22      C      -4.7392371014    -1.2907458224    -0.4000710486
   23      O      -4.1855843104    -1.1502983431     0.9637933131
   24      H      -5.1168822954     1.8619680971    -0.1509140388
   25      H      -5.0157838888     0.3457612973    -1.9089796061
   26      H      -4.6196122942     0.4853418865     2.2673297552
   27      H      -6.8422579018    -0.6537218105     1.9064664571
   28      H      -6.9785886518     0.6978137497     0.7398834117
   29      H      -6.6824769895    -2.2243126526     0.1205238258
   30      H      -6.8398207945    -0.9034819821    -1.0779486040
   31      H      -4.3636740975    -2.2163146539    -0.8775502934
   32      O       1.5484232736    -1.4519100246     0.1684033433
   33      C       3.7337819134    -2.5954432076     2.4430633339
   34      C       5.4573422329     0.3726379402    -0.1513680921
   35      C       5.7527818100     1.4913525467    -1.2300674014
   36      C       4.5257115857     2.4550610957    -1.0207844644
   37      C       3.7048140735     1.6568338329     0.0660143424
   38      O       4.7640085522     1.0991807089     0.9368055474
   39      H       4.5308614623    -0.9469335269    -1.7292221152
   40      H       2.7643873810     0.6522818755    -1.6778243926
   41      H       4.6202695865    -3.2598988207     2.3964703723
   42      H       6.3519970914    -0.1493379309     0.2399531914
   43      H       6.7081174516     1.9952121419    -1.0141764456
   44      H       5.7953218027     1.0760863066    -2.2498124269
   45      H       4.8439677560     3.4307431380    -0.6198527964
   46      H       3.9489183633     2.6232050048    -1.9444936364
   47      H       2.9775930386     2.2477098128     0.6555896493
   48      H       2.8336194516    -3.1877922697     2.1777242377
   49      H       3.6218716520    -2.1926579196     3.4664701874
   50      H      -0.0421358158    -1.5803589063    -1.1205880471
   51      H      -0.2943830895    -0.2363361604    -2.3052266926
   52      H      -1.0483605753    -1.8408532724    -2.6135430995
   53      H      -0.8043741929     1.8686171712     2.7508021604
   54      H      -0.7733825507     2.3979662259     1.0147249473
   55      H       0.2136350016    -0.2589742463     2.1832433757
   56      H      -0.8129015373    -0.3618481694     0.6880178140
 ----------------------------------------------------------------

    9   -1510.2813900564      2.78E-09 Convergence criterion met
 Total energy in the final basis set = -1510.28139006
 Final energy is   -1510.28139005637
 **  OPTIMIZATION CONVERGED  **

                    Orbital Energies (a.u.)
 --------------------------------------------------------------

 Alpha MOs
 -- Occupied --
-18.940 -18.937 -18.934 -18.924 -18.890 -18.888 -18.881 -18.880
-18.877 -18.864 -10.107 -10.104 -10.101 -10.091 -10.071 -10.067
-10.063 -10.060 -10.060 -10.059 -10.055 -10.055 -10.042 -10.041
-10.039 -10.035 -10.022 -10.021 -10.021 -10.020  -1.020  -1.015
 -1.012  -1.001  -0.972  -0.970  -0.944  -0.939  -0.936  -0.926
 -0.766  -0.763  -0.728  -0.723  -0.716  -0.708  -0.695  -0.658
 -0.653  -0.617  -0.599  -0.579  -0.547  -0.545  -0.539  -0.538
 -0.521  -0.513  -0.489  -0.476  -0.472  -0.461  -0.449  -0.439
 -0.435  -0.433  -0.428  -0.415  -0.411  -0.408  -0.406  -0.404
 -0.395  -0.377  -0.372  -0.369  -0.363  -0.356  -0.350  -0.349
 -0.347  -0.342  -0.335  -0.333  -0.330  -0.323  -0.321  -0.314
 -0.309  -0.308  -0.304  -0.302  -0.299  -0.292  -0.285  -0.276
 -0.274  -0.261  -0.255  -0.246  -0.243  -0.235  -0.234  -0.186
 -0.178  -0.176  -0.166  -0.163  -0.159  -0.153  -0.146  -0.144
 -0.142

          Ground-State Mulliken Net Atomic Charges

     Atom                 Charge (a.u.)
  ----------------------------------------
      1 O                    -0.216398
      2 C                     0.212129
      3 C                    -0.079661
      4 C                    -0.078825
      5 C                     0.218798
      6 O                    -0.172761
      7 C                    -0.056655
      8 C                    -0.052765
      9 O                    -0.171626
     10 C                     0.210014
     11 C                    -0.077846
     12 C                    -0.079452
     13 C                     0.205884
     14 O                    -0.209246
     15 O                    -0.169722
     16 O                    -0.171303
     17 O                    -0.211402
     18 C                    -0.138219
     19 C                     0.025679
     20 C                    -0.144603
     21 C                    -0.143876
     22 C                     0.026492
     23 O                    -0.185494
     24 H                     0.085086
     25 H                     0.087194
     26 H                     0.090440
     27 H                     0.078233
     28 H                     0.073361
     29 H                     0.078524
     30 H                     0.074236
     31 H                     0.083987
     32 O                    -0.217840
     33 C                    -0.128335
     34 C                     0.026070
     35 C                    -0.144756
     36 C                    -0.142812
     37 C                     0.024993
     38 O                    -0.186117
     39 H                     0.084779
     40 H                     0.084579
     41 H                     0.088980
     42 H                     0.083031
     43 H                     0.078144
     44 H                     0.073979
     45 H                     0.078168
     46 H                     0.073686
     47 H                     0.089998
     48 H                     0.089588
     49 H                     0.087977
     50 H                     0.103259
     51 H                     0.085162
     52 H                     0.086276
     53 H                     0.087181
     54 H                     0.104753
     55 H                     0.088656
     56 H                     0.110399
  ----------------------------------------
  Sum of atomic charges =    -0.000000

                    Cartesian Multipole Moments
 -----------------------------------------------------------------
    Charge (ESU x 10^10)
                 0.0000
    Dipole Moment (Debye)
         X      -1.3324      Y       0.9986      Z       0.4169
       Tot       1.7165
    Quadrupole Moments (Debye-Ang)
        XX    -143.0697     XY       6.7487     YY    -167.4516
        XZ      -5.6950     YZ       0.6933     ZZ    -160.0046

 Total job time:  78.06s(wall), 3718.50s(cpu)
        *  Thank you very much for using Q-Chem.  Have a nice day.  *
