 Q-Chem 5.0, Q-Chem, Inc., Pleasanton, CA (2017)
 Q-Chem 5.0.1 for Intel X86 EM64T Linux

User input:
--------------------------------------------------------------
$molecule
0  1
O 4.4577286432 -3.0379153885 -0.0848568009
C 4.1949892018 -1.855344938 0.2240585798
C 4.3214499688 -0.5953000634 -0.7042257926
C 3.0802739252 0.384111263 -0.6515305183
C 1.8254375335 -0.2338607681 0.057775051
O 0.9744727195 0.8227611733 0.4889220179
C -0.158920867 0.3021547755 1.3012560338
C -1.0076828648 1.5581252384 1.7063308167
O -2.4498706352 1.2385010692 1.6035701584
C -3.0196918031 1.811983693 0.4213312745
C -4.3690621314 1.0825841263 0.0839750627
C -4.2906254403 0.0542287116 -1.128489464
C -2.9215683226 -0.1230139893 -1.8673547264
O -2.7207229041 0.0977447145 -3.0823825198
O 3.8806171324 -1.4222576441 1.554300382
O -1.941142055 -0.7243871516 -1.0084538621
O -2.4722119033 2.710885156 -0.2553183486
C -0.7636681861 -1.1178967669 -1.8233986361
C -4.8717456747 0.1303406707 1.25037291
C -6.3979549403 -0.1997051751 1.0065094544
C -6.3012049957 -1.2339817578 -0.1756000925
C -4.7392371014 -1.2907458224 -0.4000710486
O -4.1855843104 -1.1502983431 0.9637933131
H -5.1168822954 1.8619680971 -0.1509140388
H -5.0157838888 0.3457612973 -1.9089796061
H -4.6196122942 0.4853418865 2.2673297552
H -6.8422579018 -0.6537218105 1.9064664571
H -6.9785886518 0.6978137497 0.7398834117
H -6.6824769895 -2.2243126526 0.1205238258
H -6.8398207945 -0.9034819821 -1.077948604
H -4.3636740975 -2.2163146539 -0.8775502934
O 1.5484232736 -1.4519100246 0.1684033433
C 3.7337819134 -2.5954432076 2.4430633339
C 5.4573422329 0.3726379402 -0.1513680921
C 5.75278181 1.4913525467 -1.2300674014
C 4.5257115857 2.4550610957 -1.0207844644
C 3.7048140735 1.6568338329 0.0660143424
O 4.7640085522 1.0991807089 0.9368055474
H 4.5308614623 -0.9469335269 -1.7292221152
H 2.764387381 0.6522818755 -1.6778243926
H 4.6202695865 -3.2598988207 2.3964703723
H 6.3519970914 -0.1493379309 0.2399531914
H 6.7081174516 1.9952121419 -1.0141764456
H 5.7953218027 1.0760863066 -2.2498124269
H 4.843967756 3.430743138 -0.6198527964
H 3.9489183633 2.6232050048 -1.9444936364
H 2.9775930386 2.2477098128 0.6555896493
H 2.8336194516 -3.1877922697 2.1777242377
H 3.621871652 -2.1926579196 3.4664701874
H -0.0421358158 -1.5803589063 -1.1205880471
H -0.2943830895 -0.2363361604 -2.3052266926
H -1.0483605753 -1.8408532724 -2.6135430995
H -0.8043741929 1.8686171712 2.7508021604
H -0.7733825507 2.3979662259 1.0147249473
H 0.2136350016 -0.2589742463 2.1832433757
H -0.8129015373 -0.3618481694 0.688017814
$end

$rem
JOBTYPE                   OPT
METHOD                    B3LYP
DFT_D                     d3_op
BASIS                     STO-3G
GEOM_OPT_MAX_CYCLES       100
GEOM_OPT_TOL_GRADIENT     300
GEOM_OPT_TOL_DISPLACEMENT 1200
GEOM_OPT_TOL_ENERGY       100
SYMMETRY                  False
THRESH                    12
SCF_CONVERGENCE           8
MAX_SUB_FILE_NUM          128
MEM_STATIC                400
MEM_TOTAL                 4000
$end
--------------------------------------------------------------

   16   -1510.2813040540      7.40E-09 Convergence criterion met
 Total energy in the final basis set = -1510.28130405
   14   -1510.2802538512      3.74E-09 Convergence criterion met
 Total energy in the final basis set = -1510.28025385
   13   -1510.2824199800      9.02E-09 Convergence criterion met
 Total energy in the final basis set = -1510.28241998
   14   -1510.2847902138      2.25E-09 Convergence criterion met
 Total energy in the final basis set = -1510.28479021
   14   -1510.2833709901      7.47E-09 Convergence criterion met
 Total energy in the final basis set = -1510.28337099
   14   -1510.2839976226      2.12E-09 Convergence criterion met
 Total energy in the final basis set = -1510.28399762
   15   -1510.2859085163      5.05E-09 Convergence criterion met
 Total energy in the final basis set = -1510.28590852
   13   -1510.2869206707      3.82E-09 Convergence criterion met
   12   -1510.2898171504      8.57E-09 Convergence criterion met
 Total energy in the final basis set = -1510.28981715
   10   -1510.2898235052      9.33E-09 Convergence criterion met
 Total energy in the final basis set = -1510.28982351
   10   -1510.2898209976      5.92E-09 Convergence criterion met
 Total energy in the final basis set = -1510.28982100
    9   -1510.2898193221      5.81E-09 Convergence criterion met
 Total energy in the final basis set = -1510.28981932
   10   -1510.2898221632      3.51E-09 Convergence criterion met
 Total energy in the final basis set = -1510.28982216
    9   -1510.2898209775      2.91E-09 Convergence criterion met
 Total energy in the final basis set = -1510.28982098

             Standard Nuclear Orientation (Angstroms)
    I     Atom           X                Y                Z
 ----------------------------------------------------------------
    1      O       3.4834290934    -2.0661816640    -1.9677656831
    2      C       3.7770449069    -1.4461339827    -0.9224762568
    3      C       4.2971542168     0.0359762632    -0.8320813781
    4      C       3.2292534051     1.0745008050    -0.2921201548
    5      C       1.8488995397     0.4192439151     0.0493591965
    6      O       1.0514038259     1.3677386982     0.7466551555
    7      C      -0.2754455430     0.7947486856     1.0965826215
    8      C      -1.1870549096     1.9951584562     1.5350426882
    9      O      -2.5986498801     1.5452020473     1.5212545901
   10      C      -3.1079041340     1.5942141947     0.1818056170
   11      C      -4.4621071435     0.8053931532     0.0922174224
   12      C      -4.4377910999    -0.2618525575    -1.0861400034
   13      C      -3.1599718314    -0.2543828178    -1.9972640490
   14      O      -3.1431018221    -0.0264599065    -3.2265336864
   15      O       3.8066598541    -2.0308910539     0.3860684699
   16      O      -1.9962037209    -0.6268276199    -1.2421915335
   17      O      -2.5300301704     2.1711101722    -0.7659392040
   18      C      -0.8352032034    -0.7594599424    -2.1591782123
   19      C      -4.7126085677    -0.1349260503     1.3417630519
   20      C      -6.2008136524    -0.6643660011     1.2952726369
   21      C      -6.1036779043    -1.7571695168     0.1672117430
   22      C      -4.5907972195    -1.6148139651    -0.2595845455
   23      O      -3.8994096132    -1.3308218036     1.0175124547
   24      H      -5.2831906204     1.5308489757    -0.0564915795
   25      H      -5.2989990546    -0.1089510009    -1.7601380369
   26      H      -4.3906668539     0.3017916146     2.3056938371
   27      H      -6.4819571156    -1.1065228225     2.2641267866
   28      H      -6.9184242864     0.1351196130     1.0510347753
   29      H      -6.2954994208    -2.7661017119     0.5661171465
   30      H      -6.7943989660    -1.5715322894    -0.6705867595
   31      H      -4.1504740477    -2.5048337887    -0.7493153258
   32      O       1.4703979199    -0.7378111377    -0.2543260410
   33      C       3.2616608360    -3.4048546639     0.3283979004
   34      C       5.4482599314     0.2179459624     0.2486858512
   35      C       6.1772523477     1.5927415210    -0.0268791829
   36      C       5.1129023645     2.6167851753     0.5172779742
   37      C       3.9689555462     1.6393958478     0.9957292824
   38      O       4.7068754683     0.4639234829     1.5077320212
   39      H       4.6377625859     0.3220490032    -1.8427635978
   40      H       3.0457804583     1.8804531183    -1.0265970357
   41      H       3.8247963410    -4.0412951163    -0.3846452655
   42      H       6.1162527482    -0.6576276641     0.3600382964
   43      H       7.1198237733     1.6499208222     0.5403622561
   44      H       6.3990638702     1.7371346251    -1.0963020494
   45      H       5.5061374580     3.1934255119     1.3694848669
   46      H       4.7619886035     3.3200949665    -0.2548448713
   47      H       3.2848456976     2.0440636000     1.7666962705
   48      H       2.1932507903    -3.3989541756     0.0291884733
   49      H       3.3574606654    -3.8162631510     1.3500012056
   50      H       0.0483804867    -0.9319914313    -1.5075571771
   51      H      -0.6906528449     0.1632089328    -2.7561951013
   52      H      -0.9727982088    -1.6112114525    -2.8547201806
   53      H      -0.9661304087     2.3191651727     2.5708398731
   54      H      -1.0375585805     2.8422810167     0.8314866014
   55      H      -0.1711369580     0.0544547079     1.9184345877
   56      H      -0.7515419262     0.2840664176     0.2276309875
 ----------------------------------------------------------------

    8   -1510.2898183515      8.31E-09 Convergence criterion met
 Total energy in the final basis set = -1510.28981835
 Final energy is   -1510.28981835149
 **  OPTIMIZATION CONVERGED  **

                    Orbital Energies (a.u.)
 --------------------------------------------------------------

 Alpha MOs
 -- Occupied --
-18.947 -18.940 -18.927 -18.919 -18.892 -18.888 -18.888 -18.881
-18.870 -18.857 -10.114 -10.105 -10.094 -10.089 -10.077 -10.071
-10.061 -10.060 -10.059 -10.059 -10.052 -10.042 -10.042 -10.041
-10.036 -10.033 -10.021 -10.021 -10.020 -10.020  -1.025  -1.018
 -1.003  -0.997  -0.970  -0.970  -0.949  -0.942  -0.929  -0.922
 -0.765  -0.763  -0.730  -0.723  -0.715  -0.707  -0.696  -0.651
 -0.649  -0.619  -0.597  -0.581  -0.546  -0.546  -0.538  -0.537
 -0.519  -0.511  -0.488  -0.476  -0.468  -0.462  -0.453  -0.443
 -0.434  -0.433  -0.429  -0.412  -0.406  -0.403  -0.402  -0.400
 -0.394  -0.386  -0.372  -0.369  -0.363  -0.352  -0.350  -0.346
 -0.339  -0.338  -0.333  -0.331  -0.330  -0.326  -0.321  -0.315
 -0.310  -0.307  -0.305  -0.301  -0.296  -0.291  -0.281  -0.274
 -0.272  -0.263  -0.257  -0.244  -0.242  -0.234  -0.234  -0.188
 -0.182  -0.170  -0.164  -0.162  -0.161  -0.147  -0.145  -0.144
 -0.138

          Ground-State Mulliken Net Atomic Charges

     Atom                 Charge (a.u.)
  ----------------------------------------
      1 O                    -0.220447
      2 C                     0.212939
      3 C                    -0.081656
      4 C                    -0.078108
      5 C                     0.222027
      6 O                    -0.170422
      7 C                    -0.055468
      8 C                    -0.048683
      9 O                    -0.170252
     10 C                     0.212837
     11 C                    -0.078099
     12 C                    -0.080422
     13 C                     0.208770
     14 O                    -0.210365
     15 O                    -0.170716
     16 O                    -0.175963
     17 O                    -0.213168
     18 C                    -0.143017
     19 C                     0.023486
     20 C                    -0.144864
     21 C                    -0.143502
     22 C                     0.025861
     23 O                    -0.188219
     24 H                     0.085886
     25 H                     0.085257
     26 H                     0.091924
     27 H                     0.078007
     28 H                     0.073147
     29 H                     0.078049
     30 H                     0.074220
     31 H                     0.084331
     32 O                    -0.210104
     33 C                    -0.127805
     34 C                     0.026690
     35 C                    -0.144397
     36 C                    -0.143663
     37 C                     0.024900
     38 O                    -0.186900
     39 H                     0.083355
     40 H                     0.087678
     41 H                     0.086108
     42 H                     0.086010
     43 H                     0.077855
     44 H                     0.073895
     45 H                     0.078143
     46 H                     0.073610
     47 H                     0.087285
     48 H                     0.091314
     49 H                     0.087447
     50 H                     0.106807
     51 H                     0.086483
     52 H                     0.083156
     53 H                     0.090909
     54 H                     0.099628
     55 H                     0.089516
     56 H                     0.108712
  ----------------------------------------
  Sum of atomic charges =    -0.000000

                    Cartesian Multipole Moments
 -----------------------------------------------------------------
    Charge (ESU x 10^10)
                 0.0000
    Dipole Moment (Debye)
         X      -0.6506      Y       1.4288      Z       1.7095
       Tot       2.3210
    Quadrupole Moments (Debye-Ang)
        XX    -139.3237     XY       7.2444     YY    -155.5130
        XZ      -6.9225     YZ       1.3746     ZZ    -170.2018

 Total job time:  78.59s(wall), 3740.80s(cpu)
        *  Thank you very much for using Q-Chem.  Have a nice day.  *
