 Q-Chem 5.0, Q-Chem, Inc., Pleasanton, CA (2017)
 Q-Chem 5.0.1 for Intel X86 EM64T Linux

User input:
--------------------------------------------------------------
$molecule
0  1
O -3.94934 -3.66094 2.70899
C -3.26408 -4.56952 2.26188
C -3.36658 -6.02376 2.66595
C -3.36795 -7.06811 1.5376
C -3.08802 -6.55426 0.14271
O -1.75076 -6.63683 -0.12252
C -1.38608 -6.03734 -1.37026
C 0.1165 -6.16791 -1.59687
O 0.36754 -6.80063 -2.86159
C 1.15319 -7.90506 -2.81531
C 0.84295 -8.89424 -3.91346
C 0.05419 -10.13315 -3.46485
C -0.60666 -10.03882 -2.10431
O -0.66854 -10.94157 -1.28225
O -2.21451 -4.24051 1.4617
O -1.55196 -9.06946 -2.01396
O 1.91336 -8.17529 -1.89386
C -2.81539 -9.32055 -1.51059
C -0.07807 -8.39007 -5.05487
C 0.16685 -9.21699 -6.31763
C -0.452 -10.53986 -5.91471
C -1.03936 -10.16168 -4.55084
O -1.37045 -8.80072 -4.68763
H 1.82373 -9.14847 -4.37476
H 0.67587 -11.05574 -3.46276
H 0.04843 -7.31055 -5.28777
H -0.45522 -8.76677 -7.12456
H 1.22221 -9.27161 -6.66116
H -1.25966 -10.78504 -6.63964
H 0.25774 -11.39121 -5.83054
H -1.87634 -10.84325 -4.28168
O -3.8972 -5.91392 -0.51831
C -1.92962 -2.96233 1.02982
C -2.1472 -6.4712 3.49369
C -2.52462 -7.66415 4.36951
C -2.65469 -8.74771 3.32198
C -2.22012 -7.97397 2.07172
O -1.27992 -7.04766 2.55515
H -4.27251 -6.1028 3.30884
H -4.3081 -7.65893 1.47542
H -1.73739 -2.29754 1.89879
H -1.71982 -5.65617 4.1186
H -1.64278 -7.89303 5.01015
H -3.41749 -7.51699 5.01451
H -1.92136 -9.55097 3.55753
H -3.67118 -9.18227 3.20754
H -1.83756 -8.68469 1.31288
H -2.77655 -2.56495 0.43065
H -1.02237 -2.98868 0.392
H -3.44563 -8.41948 -1.61508
H -2.7721 -9.64196 -0.4527
H -3.30141 -10.12313 -2.10571
H 0.56527 -5.15143 -1.61865
H 0.57617 -6.68124 -0.7219
H -1.65673 -4.95672 -1.37727
H -1.93709 -6.52366 -2.20616
$end

$opt
CONSTRAINT
tors           1           2           3           4    +134.469
tors           3           4           5           6     +92.127
tors           4           5           6           7    -173.732
tors           5           6           7           8    -180.000
tors           6           7           8           9    +125.310
tors           7           8           9          10    -125.166
tors           8           9          10          11    +150.743
tors           9          10          11          12    -104.223
tors          11          12          13          14    -140.448
ENDCONSTRAINT
$end

$rem
JOBTYPE                   OPT
METHOD                    B3LYP
DFT_D                     d3_op
BASIS                     STO-3G
GEOM_OPT_MAX_CYCLES       100
GEOM_OPT_TOL_GRADIENT     300
GEOM_OPT_TOL_DISPLACEMENT 1200
GEOM_OPT_TOL_ENERGY       100
SYMMETRY                  False
THRESH                    12
SCF_CONVERGENCE           8
MAX_SUB_FILE_NUM          128
MEM_STATIC                400
MEM_TOTAL                 4000
$end
--------------------------------------------------------------

   15   -1510.1398243814      7.83E-09 Convergence criterion met
 Total energy in the final basis set = -1510.13982438
   14   -1510.2082449179      5.47E-09 Convergence criterion met
 Total energy in the final basis set = -1510.20824492
   14   -1510.2433116036      6.73E-09 Convergence criterion met
 Total energy in the final basis set = -1510.24331160
   14   -1510.2546996876      6.42E-09 Convergence criterion met
 Total energy in the final basis set = -1510.25469969
   14   -1510.2642998254      5.55E-09 Convergence criterion met
 Total energy in the final basis set = -1510.26429983
   13   -1510.2662483668      4.74E-09 Convergence criterion met
 Total energy in the final basis set = -1510.26624837
   13   -1510.2688274098      4.84E-09 Convergence criterion met
 Total energy in the final basis set = -1510.26882741
   12   -1510.2693727284      7.71E-09 Convergence criterion met
    9   -1510.2697012846      9.71E-09 Convergence criterion met
 Total energy in the final basis set = -1510.26970128
   10   -1510.2697077554      7.08E-09 Convergence criterion met
 Total energy in the final basis set = -1510.26970776
    9   -1510.2697109285      6.31E-09 Convergence criterion met
 Total energy in the final basis set = -1510.26971093
    9   -1510.2697139551      4.81E-09 Convergence criterion met
 Total energy in the final basis set = -1510.26971396
    9   -1510.2697180250      3.78E-09 Convergence criterion met
 Total energy in the final basis set = -1510.26971803
    9   -1510.2697217221      3.82E-09 Convergence criterion met
 Total energy in the final basis set = -1510.26972172

             Standard Nuclear Orientation (Angstroms)
    I     Atom           X                Y                Z
 ----------------------------------------------------------------
    1      O      -5.6248988786    -1.7230420542     0.8040747342
    2      C      -4.6016099083    -1.1359122783     0.3884193502
    3      C      -4.3663788247     0.4104749952     0.3730188958
    4      C      -2.9506690880     0.9232007071     0.8914674543
    5      C      -1.9209476855    -0.2300526940     1.1861757654
    6      O      -1.1352773832    -0.4770808322     0.0207541345
    7      C      -0.2599498572    -1.6585829468     0.2206776637
    8      C       0.5404457734    -1.8180114634    -1.1190695306
    9      O       2.0037102750    -1.8407101798    -0.8775466479
   10      C       2.6751079258    -0.8417095793    -1.6568035690
   11      C       3.9808037176    -0.3377404164    -0.9459946686
   12      C       3.9485327299     1.0842178536    -0.2440575130
   13      C       2.5752184937     1.6927821251     0.1959321329
   14      O       2.2428040936     2.8952991522     0.0973571396
   15      O      -3.4842019647    -1.8080849098    -0.2013959995
   16      O       1.8271828182     0.7217704052     0.9373896623
   17      O       2.2150995557    -0.3737412290    -2.7229260719
   18      C       0.7790533837     1.4139651944     1.7235754476
   19      C       4.5459256707    -1.2603693249     0.2245225173
   20      C       6.1152967949    -1.0997662700     0.2208090841
   21      C       6.2529104204     0.3818494667     0.7351165496
   22      C       4.7507844095     0.7295344741     1.0901418257
   23      O       4.1558317044    -0.5688204790     1.4736208457
   24      H       4.7386390131    -0.2800128704    -1.7503176281
   25      H       4.4651760499     1.8414557938    -0.8594813897
   26      H       4.1623963259    -2.2984395465     0.2187583914
   27      H       6.5745197427    -1.8125431232     0.9245758452
   28      H       6.5548905359    -1.2517707267    -0.7776874490
   29      H       6.8863201050     0.4449992666     1.6338558209
   30      H       6.6601616355     1.0606438421    -0.0313661195
   31      H       4.6230306608     1.4702642734     1.9034511187
   32      O      -1.7840940032    -0.8463011825     2.2669970848
   33      C      -3.7128350970    -3.2714935649    -0.1979607043
   34      C      -4.3959754317     1.0260731642    -1.0976964503
   35      C      -4.7440410202     2.5608446885    -0.9652214507
   36      C      -3.3934402286     3.1211001412    -0.3838577922
   37      C      -2.5058578827     1.8131594001    -0.3476096164
   38      O      -2.9787765649     1.0306827924    -1.5126188978
   39      H      -5.1753843055     0.8485443866     0.9841100571
   40      H      -3.0696683272     1.5164462305     1.8155766618
   41      H      -4.6623381062    -3.5379100218    -0.7048493480
   42      H      -5.0133924068     0.4600057612    -1.8219703010
   43      H      -4.9660387096     2.9901295528    -1.9552317821
   44      H      -5.6036670766     2.7387052797    -0.2995966550
   45      H      -2.9448201599     3.8727993507    -1.0522832419
   46      H      -3.5139409307     3.5651620838     0.6172182699
   47      H      -1.4157551695     1.9847965956    -0.4233954340
   48      H      -3.7388278516    -3.6758676462     0.8348470183
   49      H      -2.8615613976    -3.7138401330    -0.7473365531
   50      H       0.2830266241     0.6353226713     2.3306883986
   51      H       0.0326452790     1.9088963488     1.0719627495
   52      H       1.2206857793     2.1802077637     2.3922733456
   53      H       0.2542307776    -2.7678820947    -1.6195725190
   54      H       0.2857118775    -0.9817807403    -1.8063093556
   55      H      -0.8704619397    -2.5590737990     0.4421688743
   56      H       0.4475566508    -1.4946218217     1.0635202658
 ----------------------------------------------------------------

    9   -1510.2697226582      2.58E-09 Convergence criterion met
 Total energy in the final basis set = -1510.26972266
 Final energy is   -1510.26972265824
 **  OPTIMIZATION CONVERGED  **

                    Orbital Energies (a.u.)
 --------------------------------------------------------------

 Alpha MOs
 -- Occupied --
-18.939 -18.933 -18.932 -18.927 -18.890 -18.890 -18.878 -18.876
-18.873 -18.868 -10.102 -10.101 -10.099 -10.098 -10.070 -10.068
-10.067 -10.063 -10.062 -10.061 -10.060 -10.059 -10.041 -10.040
-10.039 -10.039 -10.022 -10.021 -10.020 -10.020  -1.017  -1.012
 -1.009  -1.006  -0.971  -0.971  -0.938  -0.938  -0.934  -0.931
 -0.764  -0.764  -0.727  -0.723  -0.715  -0.707  -0.694  -0.664
 -0.661  -0.614  -0.599  -0.578  -0.547  -0.545  -0.538  -0.538
 -0.519  -0.516  -0.491  -0.479  -0.473  -0.464  -0.443  -0.435
 -0.434  -0.430  -0.424  -0.416  -0.414  -0.412  -0.409  -0.402
 -0.398  -0.377  -0.371  -0.370  -0.359  -0.357  -0.353  -0.350
 -0.345  -0.344  -0.337  -0.333  -0.331  -0.325  -0.320  -0.311
 -0.308  -0.307  -0.306  -0.304  -0.300  -0.290  -0.284  -0.277
 -0.273  -0.255  -0.252  -0.249  -0.243  -0.235  -0.234  -0.180
 -0.178  -0.173  -0.171  -0.158  -0.157  -0.150  -0.147  -0.144
 -0.143

          Ground-State Mulliken Net Atomic Charges

     Atom                 Charge (a.u.)
  ----------------------------------------
      1 O                    -0.212066
      2 C                     0.206919
      3 C                    -0.079873
      4 C                    -0.079542
      5 C                     0.210865
      6 O                    -0.165137
      7 C                    -0.046315
      8 C                    -0.048799
      9 O                    -0.176299
     10 C                     0.210841
     11 C                    -0.079164
     12 C                    -0.076955
     13 C                     0.205095
     14 O                    -0.214030
     15 O                    -0.167030
     16 O                    -0.165925
     17 O                    -0.208522
     18 C                    -0.130476
     19 C                     0.025211
     20 C                    -0.142570
     21 C                    -0.145152
     22 C                     0.026329
     23 O                    -0.185038
     24 H                     0.083241
     25 H                     0.087653
     26 H                     0.090580
     27 H                     0.077889
     28 H                     0.073573
     29 H                     0.078470
     30 H                     0.074397
     31 H                     0.081560
     32 O                    -0.222401
     33 C                    -0.128444
     34 C                     0.026403
     35 C                    -0.142998
     36 C                    -0.145089
     37 C                     0.026617
     38 O                    -0.183566
     39 H                     0.085856
     40 H                     0.084104
     41 H                     0.091855
     42 H                     0.083216
     43 H                     0.078726
     44 H                     0.074337
     45 H                     0.079561
     46 H                     0.073367
     47 H                     0.085867
     48 H                     0.090290
     49 H                     0.089265
     50 H                     0.094763
     51 H                     0.085400
     52 H                     0.086168
     53 H                     0.082424
     54 H                     0.106985
     55 H                     0.086892
     56 H                     0.100674
  ----------------------------------------
  Sum of atomic charges =    -0.000000

                    Cartesian Multipole Moments
 -----------------------------------------------------------------
    Charge (ESU x 10^10)
                 0.0000
    Dipole Moment (Debye)
         X       0.9518      Y       0.0665      Z       0.0838
       Tot       0.9577
    Quadrupole Moments (Debye-Ang)
        XX    -146.9819     XY      -6.1122     YY    -154.4555
        XZ       3.6683     YZ       7.8797     ZZ    -169.1508

 Total job time:  52.73s(wall), 2508.93s(cpu)
        *  Thank you very much for using Q-Chem.  Have a nice day.  *
