 Q-Chem 5.0, Q-Chem, Inc., Pleasanton, CA (2017)
 Q-Chem 5.0.1 for Intel X86 EM64T Linux

User input:
--------------------------------------------------------------
$molecule
0  1
O -5.6248988786 -1.7230420542 0.8040747342
C -4.6016099083 -1.1359122783 0.3884193502
C -4.3663788247 0.4104749952 0.3730188958
C -2.950669088 0.9232007071 0.8914674543
C -1.9209476855 -0.230052694 1.1861757654
O -1.1352773832 -0.4770808322 0.0207541345
C -0.2599498572 -1.6585829468 0.2206776637
C 0.5404457734 -1.8180114634 -1.1190695306
O 2.003710275 -1.8407101798 -0.8775466479
C 2.6751079258 -0.8417095793 -1.656803569
C 3.9808037176 -0.3377404164 -0.9459946686
C 3.9485327299 1.0842178536 -0.244057513
C 2.5752184937 1.6927821251 0.1959321329
O 2.2428040936 2.8952991522 0.0973571396
O -3.4842019647 -1.8080849098 -0.2013959995
O 1.8271828182 0.7217704052 0.9373896623
O 2.2150995557 -0.373741229 -2.7229260719
C 0.7790533837 1.4139651944 1.7235754476
C 4.5459256707 -1.2603693249 0.2245225173
C 6.1152967949 -1.09976627 0.2208090841
C 6.2529104204 0.3818494667 0.7351165496
C 4.7507844095 0.7295344741 1.0901418257
O 4.1558317044 -0.568820479 1.4736208457
H 4.7386390131 -0.2800128704 -1.7503176281
H 4.4651760499 1.8414557938 -0.8594813897
H 4.1623963259 -2.2984395465 0.2187583914
H 6.5745197427 -1.8125431232 0.9245758452
H 6.5548905359 -1.2517707267 -0.777687449
H 6.886320105 0.4449992666 1.6338558209
H 6.6601616355 1.0606438421 -0.0313661195
H 4.6230306608 1.4702642734 1.9034511187
O -1.7840940032 -0.8463011825 2.2669970848
C -3.712835097 -3.2714935649 -0.1979607043
C -4.3959754317 1.0260731642 -1.0976964503
C -4.7440410202 2.5608446885 -0.9652214507
C -3.3934402286 3.1211001412 -0.3838577922
C -2.5058578827 1.8131594001 -0.3476096164
O -2.9787765649 1.0306827924 -1.5126188978
H -5.1753843055 0.8485443866 0.9841100571
H -3.0696683272 1.5164462305 1.8155766618
H -4.6623381062 -3.5379100218 -0.704849348
H -5.0133924068 0.4600057612 -1.821970301
H -4.9660387096 2.9901295528 -1.9552317821
H -5.6036670766 2.7387052797 -0.299596655
H -2.9448201599 3.8727993507 -1.0522832419
H -3.5139409307 3.5651620838 0.6172182699
H -1.4157551695 1.9847965956 -0.423395434
H -3.7388278516 -3.6758676462 0.8348470183
H -2.8615613976 -3.713840133 -0.7473365531
H 0.2830266241 0.6353226713 2.3306883986
H 0.032645279 1.9088963488 1.0719627495
H 1.2206857793 2.1802077637 2.3922733456
H 0.2542307776 -2.7678820947 -1.619572519
H 0.2857118775 -0.9817807403 -1.8063093556
H -0.8704619397 -2.559073799 0.4421688743
H 0.4475566508 -1.4946218217 1.0635202658
$end

$rem
JOBTYPE                   OPT
METHOD                    B3LYP
DFT_D                     d3_op
BASIS                     STO-3G
GEOM_OPT_MAX_CYCLES       100
GEOM_OPT_TOL_GRADIENT     300
GEOM_OPT_TOL_DISPLACEMENT 1200
GEOM_OPT_TOL_ENERGY       100
SYMMETRY                  False
THRESH                    12
SCF_CONVERGENCE           8
MAX_SUB_FILE_NUM          128
MEM_STATIC                400
MEM_TOTAL                 4000
$end
--------------------------------------------------------------

   16   -1510.2697215257      4.86E-09 Convergence criterion met
 Total energy in the final basis set = -1510.26972153
   15   -1510.2719899433      4.20E-09 Convergence criterion met
 Total energy in the final basis set = -1510.27198994
   14   -1510.2773572672      6.24E-09 Convergence criterion met
 Total energy in the final basis set = -1510.27735727
   14   -1510.2802937282      4.07E-09 Convergence criterion met
 Total energy in the final basis set = -1510.28029373
   14   -1510.2818457469      1.89E-09 Convergence criterion met
 Total energy in the final basis set = -1510.28184575
   14   -1510.2831685879      3.87E-09 Convergence criterion met
 Total energy in the final basis set = -1510.28316859
   14   -1510.2841426617      4.71E-09 Convergence criterion met
 Total energy in the final basis set = -1510.28414266
   13   -1510.2848657082      6.70E-09 Convergence criterion met
   12   -1510.2911276795      5.58E-09 Convergence criterion met
 Total energy in the final basis set = -1510.29112768
   11   -1510.2911595785      5.26E-09 Convergence criterion met
 Total energy in the final basis set = -1510.29115958
   12   -1510.2911636011      2.28E-09 Convergence criterion met
 Total energy in the final basis set = -1510.29116360
   11   -1510.2911683505      4.34E-09 Convergence criterion met
 Total energy in the final basis set = -1510.29116835
    9   -1510.2911681804      6.70E-09 Convergence criterion met
 Total energy in the final basis set = -1510.29116818
    9   -1510.2911660142      8.41E-09 Convergence criterion met
 Total energy in the final basis set = -1510.29116601

             Standard Nuclear Orientation (Angstroms)
    I     Atom           X                Y                Z
 ----------------------------------------------------------------
    1      O      -3.7750955100     0.5287178363     2.8328320227
    2      C      -3.6719417360     0.2943421689     1.6100109396
    3      C      -4.3592084520     1.0565224984     0.4294257288
    4      C      -3.3999174049     1.3527262862    -0.8025811956
    5      C      -1.9124483767     0.9107071433    -0.5389721990
    6      O      -1.5385935191    -0.1168060779    -1.4557026045
    7      C      -0.1378451682    -0.5509680396    -1.2292349244
    8      C       0.8875452076     0.4535932188    -1.8692071673
    9      O       2.2544411301    -0.0401978869    -1.5855365624
   10      C       2.9903018296     0.9395529861    -0.8394861411
   11      C       4.3956538005     0.3582355213    -0.4422893578
   12      C       4.5987254274     0.2833174414     1.1330417110
   13      C       3.3782540536     0.7946866706     1.9672773127
   14      O       3.4076675920     1.6242992392     2.9031770803
   15      O      -2.8963788591    -0.7780183636     1.0581000303
   16      O       2.1960472566     0.1416974099     1.4952746718
   17      O       2.5684765618     2.0917187601    -0.5939368343
   18      C       1.0008885506     0.6256428781     2.2301748338
   19      C       4.5921064068    -1.1625102204    -0.8436154533
   20      C       6.1274786336    -1.5160742102    -0.7255980580
   21      C       6.3000347160    -1.6172646905     0.8349300851
   22      C       4.8362283122    -1.2800088244     1.3229275213
   23      O       3.9751124425    -1.8933193075     0.2881469687
   24      H       5.1673653447     1.0053653998    -0.8984220168
   25      H       5.4817102499     0.8648787729     1.4504061604
   26      H       4.1083740435    -1.4458737330    -1.7971118670
   27      H       6.3398466846    -2.4777809341    -1.2190700818
   28      H       6.7671175641    -0.7401906174    -1.1757306573
   29      H       6.5833608016    -2.6359620901     1.1446979298
   30      H       7.0441934709    -0.9073123019     1.2298478470
   31      H       4.5728737379    -1.6662363353     2.3266874905
   32      O      -1.1467797537     1.4235499865     0.3106491198
   33      C      -2.2154130572    -1.5292913094     2.1359710242
   34      C      -5.4618208317     0.1465240332    -0.2752235673
   35      C      -6.3690929032     1.0743815225    -1.1758386358
   36      C      -5.4111712653     1.3445890166    -2.3946426519
   37      C      -4.1247579824     0.5400490136    -1.9553562056
   38      O      -4.6797284707    -0.6401541017    -1.2530318794
   39      H      -4.7983938659     1.9840388463     0.8363490227
   40      H      -3.3853341795     2.4364935638    -1.0207072399
   41      H      -2.9412969837    -2.0974485912     2.7530218235
   42      H      -6.0104554032    -0.5242119480     0.4143439543
   43      H      -7.2786761871     0.5365169064    -1.4867755153
   44      H      -6.6651940927     1.9976854608    -0.6529550017
   45      H      -5.8220441146     0.9310895969    -3.3294724203
   46      H      -5.2028111107     2.4160500617    -2.5443562080
   47      H      -3.4558175747     0.2220016534    -2.7769916009
   48      H      -1.6393245760    -0.8544550365     2.8000909375
   49      H      -1.5293691349    -2.2338836609     1.6310914612
   50      H       0.2293651980     0.9363478806     1.4877706427
   51      H       1.2863556071     1.4755769185     2.8805184151
   52      H       0.6115878000    -0.1999146893     2.8582238642
   53      H       0.7434032760     0.5047539813    -2.9686825341
   54      H       0.7801443664     1.4678033939    -1.4254903017
   55      H      -0.0541688213    -1.5431036208    -1.7162621167
   56      H       0.0808402291    -0.6588148765    -0.1468625909
 ----------------------------------------------------------------

    9   -1510.2911653205      6.47E-09 Convergence criterion met
 Total energy in the final basis set = -1510.29116532
 Final energy is   -1510.29116532053
 **  OPTIMIZATION CONVERGED  **

                    Orbital Energies (a.u.)
 --------------------------------------------------------------

 Alpha MOs
 -- Occupied --
-18.943 -18.939 -18.932 -18.924 -18.891 -18.886 -18.880 -18.879
-18.871 -18.869 -10.111 -10.102 -10.100 -10.093 -10.073 -10.066
-10.065 -10.064 -10.061 -10.059 -10.057 -10.042 -10.041 -10.038
-10.035 -10.034 -10.023 -10.022 -10.020 -10.019  -1.021  -1.013
 -1.010  -1.000  -0.973  -0.968  -0.944  -0.939  -0.935  -0.927
 -0.766  -0.762  -0.729  -0.723  -0.715  -0.706  -0.693  -0.663
 -0.646  -0.617  -0.598  -0.582  -0.549  -0.544  -0.540  -0.536
 -0.517  -0.510  -0.488  -0.480  -0.474  -0.466  -0.447  -0.437
 -0.433  -0.432  -0.427  -0.419  -0.412  -0.407  -0.405  -0.398
 -0.390  -0.380  -0.377  -0.367  -0.362  -0.361  -0.354  -0.347
 -0.345  -0.337  -0.336  -0.333  -0.329  -0.325  -0.317  -0.311
 -0.308  -0.307  -0.304  -0.300  -0.299  -0.292  -0.289  -0.279
 -0.273  -0.257  -0.253  -0.246  -0.238  -0.236  -0.232  -0.189
 -0.180  -0.171  -0.165  -0.160  -0.158  -0.153  -0.147  -0.146
 -0.142

          Ground-State Mulliken Net Atomic Charges

     Atom                 Charge (a.u.)
  ----------------------------------------
      1 O                    -0.208800
      2 C                     0.210056
      3 C                    -0.079129
      4 C                    -0.077692
      5 C                     0.222425
      6 O                    -0.164881
      7 C                    -0.048368
      8 C                    -0.057734
      9 O                    -0.171585
     10 C                     0.216837
     11 C                    -0.077272
     12 C                    -0.079348
     13 C                     0.210438
     14 O                    -0.212982
     15 O                    -0.167390
     16 O                    -0.174535
     17 O                    -0.217057
     18 C                    -0.153401
     19 C                     0.024533
     20 C                    -0.144699
     21 C                    -0.143608
     22 C                     0.025984
     23 O                    -0.187102
     24 H                     0.084456
     25 H                     0.085224
     26 H                     0.091154
     27 H                     0.077311
     28 H                     0.072941
     29 H                     0.077578
     30 H                     0.074159
     31 H                     0.082629
     32 O                    -0.222951
     33 C                    -0.128531
     34 C                     0.026087
     35 C                    -0.143867
     36 C                    -0.144260
     37 C                     0.024954
     38 O                    -0.185644
     39 H                     0.086824
     40 H                     0.085686
     41 H                     0.088953
     42 H                     0.083155
     43 H                     0.078602
     44 H                     0.074661
     45 H                     0.078326
     46 H                     0.073470
     47 H                     0.091657
     48 H                     0.092277
     49 H                     0.092526
     50 H                     0.110165
     51 H                     0.097012
     52 H                     0.072048
     53 H                     0.082262
     54 H                     0.105259
     55 H                     0.093122
     56 H                     0.098064
  ----------------------------------------
  Sum of atomic charges =     0.000000

                    Cartesian Multipole Moments
 -----------------------------------------------------------------
    Charge (ESU x 10^10)
                 0.0000
    Dipole Moment (Debye)
         X      -0.2657      Y      -0.8882      Z      -2.3840
       Tot       2.5579
    Quadrupole Moments (Debye-Ang)
        XX    -138.8741     XY     -10.2232     YY    -165.2484
        XZ       0.1735     YZ     -10.3597     ZZ    -162.3094

 Total job time:  181.05s(wall), 8632.63s(cpu)
        *  Thank you very much for using Q-Chem.  Have a nice day.  *
