 Q-Chem 5.0, Q-Chem, Inc., Pleasanton, CA (2017)
 Q-Chem 5.0.1 for Intel X86 EM64T Linux

User input:
--------------------------------------------------------------
$molecule
0  1
O 4.7131399566 -2.9426529946 -0.1844690458
C 4.5946177209 -1.7627496709 0.2107189313
C 4.9335261068 -0.4609957612 -0.6001059655
C 3.6760537407 0.4499352038 -0.9263306721
C 2.3326234269 -0.1608747575 -0.3918773099
O 1.4095694276 0.8886896636 -0.100893122
C 0.1947163972 0.3290793706 0.5458221536
C -0.7122736151 1.5431698129 0.9390053069
O -2.088724008 1.0326063654 1.1465109458
C -3.001666607 1.7211801119 0.2805410557
C -4.4368620927 1.1088861084 0.4370064468
C -4.8605148647 0.1702457557 -0.772797717
C -3.5919599792 -0.3894362579 -1.5274089397
O -2.5741946603 0.2583218193 -1.8602484503
O 4.2094776185 -1.3900181935 1.541196726
O -3.779431337 -1.7701635166 -1.8416358217
O -2.6976315726 2.7210292584 -0.406909487
C -2.5881600061 -2.2942869623 -2.5499517749
C -4.708613972 0.1530499646 1.6771685288
C -6.2493223157 0.2589305914 2.0011737365
C -6.8591380344 -0.4821695033 0.7533684401
C -5.556161682 -1.006500533 0.0286666407
O -4.5838823786 -1.2182314299 1.1304206488
H -5.1268691653 1.9717023442 0.4714406488
H -5.5253023643 0.6840304025 -1.491082347
H -4.0219741818 0.2962545085 2.533088787
H -6.4806107178 -0.2741895775 2.9373821285
H -6.5919343594 1.3020957414 2.0912836286
H -7.4998493689 -1.3261576629 1.053366673
H -7.4451086925 0.190687472 0.1064715972
H -5.680306259 -1.9348744637 -0.5602543531
O 2.0805953161 -1.3760668436 -0.2274269791
C 3.8060993094 -2.5946220161 2.2990728697
C 5.8175612524 0.5584901414 0.2406778109
C 6.4464828367 1.6092864887 -0.7587896658
C 5.1965125728 2.5106779081 -1.0780804735
C 4.0826118409 1.8053335184 -0.2085115923
O 4.8170470122 1.3487803291 0.9929900677
H 5.4452536903 -0.7745314692 -1.5265065431
H 3.5698669922 0.5970162568 -2.0177883607
H 4.6128504767 -3.3554819469 2.3247710782
H 6.5342414199 0.0798279494 0.9354486773
H 7.244319691 2.1845563181 -0.2627704634
H 6.8642490571 1.127008283 -1.6570041004
H 5.3487885479 3.5475977044 -0.7387422544
H 4.9417286544 2.5238803994 -2.1498198156
H 3.2195280158 2.4376338505 0.0755713575
H 2.8984615905 -3.0573739783 1.8592611249
H 3.5859762043 -2.2512683098 3.3266375454
H -2.8065247271 -3.3562945044 -2.7654843001
H -1.677486049 -2.2228890039 -1.9206575591
H -2.4053192093 -1.7501596981 -3.4990410645
H -0.3564600618 2.0168071071 1.8774889853
H -0.7346690474 2.302688083 0.1261931844
H 0.4661068612 -0.2821203044 1.4328133864
H -0.3618096617 -0.3210109868 -0.1664084786
$end

$rem
JOBTYPE                   OPT
METHOD                    B3LYP
DFT_D                     d3_op
BASIS                     STO-3G
GEOM_OPT_MAX_CYCLES       100
GEOM_OPT_TOL_GRADIENT     300
GEOM_OPT_TOL_DISPLACEMENT 1200
GEOM_OPT_TOL_ENERGY       100
SYMMETRY                  False
THRESH                    12
SCF_CONVERGENCE           8
MAX_SUB_FILE_NUM          128
MEM_STATIC                400
MEM_TOTAL                 4000
$end
--------------------------------------------------------------

   16   -1510.2795717855      4.67E-09 Convergence criterion met
 Total energy in the final basis set = -1510.27957179
   14   -1510.2822542836      1.92E-09 Convergence criterion met
 Total energy in the final basis set = -1510.28225428
   14   -1510.2842823969      1.23E-09 Convergence criterion met
 Total energy in the final basis set = -1510.28428240
   14   -1510.2857001710      1.47E-09 Convergence criterion met
 Total energy in the final basis set = -1510.28570017
   14   -1510.2868733745      1.05E-09 Convergence criterion met
 Total energy in the final basis set = -1510.28687337
   13   -1510.2876915062      7.35E-09 Convergence criterion met
 Total energy in the final basis set = -1510.28769151
   14   -1510.2884252279      1.46E-09 Convergence criterion met
 Total energy in the final basis set = -1510.28842523
   14   -1510.2890708490      1.46E-09 Convergence criterion met
   11   -1510.2914235227      6.71E-09 Convergence criterion met
 Total energy in the final basis set = -1510.29142352
   12   -1510.2914430180      3.16E-09 Convergence criterion met
 Total energy in the final basis set = -1510.29144302
   11   -1510.2914496391      5.96E-09 Convergence criterion met
 Total energy in the final basis set = -1510.29144964
   10   -1510.2914460446      9.59E-09 Convergence criterion met
 Total energy in the final basis set = -1510.29144604
    9   -1510.2914488466      9.67E-09 Convergence criterion met
 Total energy in the final basis set = -1510.29144885
    9   -1510.2914498550      4.41E-09 Convergence criterion met
 Total energy in the final basis set = -1510.29144985

             Standard Nuclear Orientation (Angstroms)
    I     Atom           X                Y                Z
 ----------------------------------------------------------------
    1      O       3.4386825857    -2.5546150638    -1.7830764560
    2      C       3.7210401644    -1.7539720994    -0.8654568073
    3      C       4.3902972115    -0.3395414331    -1.0288527604
    4      C       3.4187477528     0.8789406555    -0.7440366838
    5      C       1.9597481223     0.4336577092    -0.3953215811
    6      O       1.2425014579     1.5365191696     0.1481509295
    7      C      -0.1449402842     1.0964397123     0.4447677190
    8      C      -1.0479202636     2.3217492462     0.8032111092
    9      O      -2.4222499671     1.7711802086     0.9203124730
   10      C      -3.1756946409     2.0269816331    -0.2759841609
   11      C      -4.4832114240     1.1560226632    -0.2278403635
   12      C      -4.2492717413    -0.3824238355    -0.5584833633
   13      C      -2.7639668472    -0.7227745613    -0.9394398997
   14      O      -1.9656967037     0.0448051255    -1.5312819602
   15      O       3.5879966987    -2.0456362894     0.5332410601
   16      O      -2.4422128200    -2.0470762540    -0.5404440933
   17      O      -2.8512463692     2.8568207219    -1.1526706630
   18      C      -1.0722166238    -2.4170102280    -0.9877743698
   19      C      -5.0791785771     1.0432116781     1.2415522639
   20      C      -6.5620620512     0.5057604619     1.1402945308
   21      C      -6.3143845013    -1.0161702253     0.8243192734
   22      C      -4.7361486451    -1.0657042314     0.7888250341
   23      O      -4.3358629472    -0.0939049974     1.8309810070
   24      H      -5.2059372737     1.6021662469    -0.9332661572
   25      H      -4.8843662276    -0.6950070246    -1.4089538702
   26      H      -4.9487468976     1.9524396450     1.8593649408
   27      H      -7.0866923836     0.6393839985     2.0997543752
   28      H      -7.1352197651     1.0166033172     0.3500686103
   29      H      -6.7003822045    -1.6635812172     1.6277113855
   30      H      -6.7633481846    -1.3326544320    -0.1307095767
   31      H      -4.2794704705    -2.0560227250     0.9792420474
   32      O       1.4647575445    -0.7059169597    -0.5750443026
   33      C       2.8930451662    -3.3391669458     0.7077671661
   34      C       5.5139122145    -0.0703124739     0.0610922528
   35      C       6.3807980209     1.1658329404    -0.4079262661
   36      C       5.4060065648     2.3611423411    -0.0946797073
   37      C       4.1539165135     1.5865715667     0.4749412878
   38      O       4.7528922254     0.4563540627     1.2182032208
   39      H       4.7942768895    -0.2863516911    -2.0550574347
   40      H       3.3619713397     1.5580355630    -1.6151731892
   41      H       3.4206853340    -4.1651952868     0.1882972228
   42      H       6.0921608281    -0.9670946414     0.3553944608
   43      H       7.3069144311     1.2339724577     0.1845598522
   44      H       6.6473777747     1.1029439295    -1.4749617168
   45      H       5.8235619770     3.0342762722     0.6709168543
   46      H       5.1555964159     2.9543400024    -0.9887882618
   47      H       3.4790067015     2.1755016670     1.1258867190
   48      H       1.8529460604    -3.2890307042     0.3245548314
   49      H       2.8765486929    -3.5345193947     1.7958031683
   50      H      -0.8700723179    -3.4014536181    -0.5278597254
   51      H      -0.2913228181    -1.6858560269    -0.6747177747
   52      H      -1.0373459223    -2.5169656664    -2.0915834382
   53      H      -0.7756463698     2.7716882875     1.7789952577
   54      H      -1.0150620093     3.0900461113     0.0007331407
   55      H      -0.1440851912     0.3717092459     1.2875948890
   56      H      -0.5987244577     0.5997478987    -0.4468005539
 ----------------------------------------------------------------

    9   -1510.2914497146      4.01E-09 Convergence criterion met
 Total energy in the final basis set = -1510.29144971
 Final energy is   -1510.29144971456
 **  OPTIMIZATION CONVERGED  **

                    Orbital Energies (a.u.)
 --------------------------------------------------------------

 Alpha MOs
 -- Occupied --
-18.946 -18.942 -18.925 -18.919 -18.888 -18.886 -18.885 -18.884
-18.873 -18.857 -10.110 -10.108 -10.097 -10.088 -10.066 -10.061
-10.060 -10.059 -10.058 -10.057 -10.055 -10.053 -10.043 -10.039
-10.038 -10.032 -10.021 -10.020 -10.019 -10.018  -1.022  -1.019
 -1.006  -0.996  -0.971  -0.968  -0.944  -0.943  -0.933  -0.922
 -0.765  -0.762  -0.727  -0.722  -0.714  -0.707  -0.692  -0.661
 -0.651  -0.613  -0.597  -0.576  -0.547  -0.544  -0.538  -0.536
 -0.517  -0.510  -0.486  -0.475  -0.469  -0.460  -0.451  -0.440
 -0.434  -0.433  -0.430  -0.417  -0.407  -0.406  -0.402  -0.399
 -0.393  -0.385  -0.374  -0.366  -0.361  -0.357  -0.347  -0.344
 -0.340  -0.336  -0.333  -0.332  -0.327  -0.326  -0.322  -0.314
 -0.311  -0.307  -0.304  -0.299  -0.295  -0.287  -0.280  -0.277
 -0.274  -0.266  -0.248  -0.244  -0.241  -0.235  -0.233  -0.191
 -0.177  -0.171  -0.163  -0.162  -0.159  -0.151  -0.144  -0.142
 -0.138

          Ground-State Mulliken Net Atomic Charges

     Atom                 Charge (a.u.)
  ----------------------------------------
      1 O                    -0.220533
      2 C                     0.213293
      3 C                    -0.081260
      4 C                    -0.077988
      5 C                     0.220666
      6 O                    -0.169792
      7 C                    -0.063482
      8 C                    -0.052559
      9 O                    -0.174260
     10 C                     0.211826
     11 C                    -0.079549
     12 C                    -0.077510
     13 C                     0.217687
     14 O                    -0.217560
     15 O                    -0.170857
     16 O                    -0.165706
     17 O                    -0.210510
     18 C                    -0.139753
     19 C                     0.026678
     20 C                    -0.144345
     21 C                    -0.143892
     22 C                     0.023478
     23 O                    -0.186810
     24 H                     0.084659
     25 H                     0.086456
     26 H                     0.085410
     27 H                     0.078138
     28 H                     0.073636
     29 H                     0.078327
     30 H                     0.073143
     31 H                     0.092129
     32 O                    -0.213766
     33 C                    -0.127666
     34 C                     0.026554
     35 C                    -0.144449
     36 C                    -0.143613
     37 C                     0.024793
     38 O                    -0.186736
     39 H                     0.083279
     40 H                     0.087470
     41 H                     0.086266
     42 H                     0.084854
     43 H                     0.077572
     44 H                     0.073616
     45 H                     0.077952
     46 H                     0.073586
     47 H                     0.088555
     48 H                     0.087380
     49 H                     0.087450
     50 H                     0.087922
     51 H                     0.113521
     52 H                     0.086969
     53 H                     0.086758
     54 H                     0.101102
     55 H                     0.082941
     56 H                     0.108528
  ----------------------------------------
  Sum of atomic charges =    -0.000000

                    Cartesian Multipole Moments
 -----------------------------------------------------------------
    Charge (ESU x 10^10)
                -0.0000
    Dipole Moment (Debye)
         X      -1.0165      Y       0.0642      Z       0.1165
       Tot       1.0252
    Quadrupole Moments (Debye-Ang)
        XX    -137.3068     XY       8.1759     YY    -158.1881
        XZ      -1.8942     YZ       0.1142     ZZ    -167.0052

 Total job time:  83.96s(wall), 3995.98s(cpu)
        *  Thank you very much for using Q-Chem.  Have a nice day.  *
