 Q-Chem 5.0, Q-Chem, Inc., Pleasanton, CA (2017)
 Q-Chem 5.0.1 for Intel X86 EM64T Linux

User input:
--------------------------------------------------------------
$molecule
0  1
O -3.94934 -3.66094 2.70899
C -3.26408 -4.56952 2.26188
C -3.36658 -6.02376 2.66595
C -3.8301 -7.02066 1.59115
C -3.96857 -6.48043 0.18506
O -3.75375 -7.48084 -0.71962
C -3.72668 -7.0188 -2.07426
C -3.37224 -8.16651 -3.01409
O -3.77041 -7.84158 -4.35527
C -4.62306 -8.71965 -4.93932
C -5.07499 -8.27732 -6.31073
C -6.50565 -7.72271 -6.37321
C -7.13285 -7.36098 -5.04186
O -7.08576 -8.04213 -4.02777
O -2.34999 -4.27835 1.29717
O -7.68531 -6.12112 -4.93238
O -5.04627 -9.74618 -4.42056
C -8.23685 -5.60825 -3.77653
C -4.30983 -7.076 -6.93161
C -4.39968 -7.14751 -8.45471
C -5.86447 -6.82902 -8.66473
C -6.27283 -6.46405 -7.23157
O -5.10075 -5.94569 -6.65381
H -4.90333 -9.14712 -6.98478
H -7.18865 -8.47053 -6.83169
H -3.24154 -7.01408 -6.63068
H -3.79181 -6.29984 -8.84622
H -4.04804 -8.09059 -8.92555
H -5.938 -5.95451 -9.34853
H -6.48239 -7.66966 -9.0487
H -7.15184 -5.78458 -7.25751
O -4.59571 -5.46253 -0.08384
C -2.13183 -3.01656 0.78566
C -2.00518 -6.60948 3.07051
C -2.20811 -7.80584 3.99607
C -2.74404 -8.82673 3.01716
C -2.65629 -8.0338 1.70706
O -1.53291 -7.20733 1.88974
H -4.06228 -6.04703 3.5356
H -4.80405 -7.49544 1.84403
H -1.80539 -2.32727 1.59345
H -1.33246 -5.86227 3.54638
H -1.20097 -8.13574 4.3382
H -2.85223 -7.61117 4.88049
H -2.04004 -9.68855 2.99328
H -3.77572 -9.18702 3.22005
H -2.59125 -8.756 0.86619
H -3.05999 -2.63008 0.31292
H -1.33463 -3.06937 0.01619
H -8.61072 -4.58312 -3.97584
H -7.46869 -5.55944 -2.97508
H -9.08722 -6.24153 -3.44474
H -2.28061 -8.36489 -2.96555
H -3.8767 -9.07219 -2.61199
H -3.01444 -6.1768 -2.22955
H -4.75594 -6.67843 -2.33196
$end

$opt
CONSTRAINT
tors           1           2           3           4    +114.779
tors           3           4           5           6    +151.392
tors           4           5           6           7    -173.732
tors           5           6           7           8    +175.456
tors           6           7           8           9    +160.902
tors           7           8           9          10    -122.815
tors           8           9          10          11    +176.213
tors           9          10          11          12    -104.223
tors          11          12          13          14     -44.425
ENDCONSTRAINT
$end

$rem
JOBTYPE                   OPT
METHOD                    B3LYP
DFT_D                     d3_op
BASIS                     STO-3G
GEOM_OPT_MAX_CYCLES       100
GEOM_OPT_TOL_GRADIENT     300
GEOM_OPT_TOL_DISPLACEMENT 1200
GEOM_OPT_TOL_ENERGY       100
SYMMETRY                  False
THRESH                    12
SCF_CONVERGENCE           8
MAX_SUB_FILE_NUM          128
MEM_STATIC                400
MEM_TOTAL                 4000
$end
--------------------------------------------------------------

   15   -1510.1453554803      7.51E-09 Convergence criterion met
 Total energy in the final basis set = -1510.14535548
   13   -1510.2149224333      9.87E-09 Convergence criterion met
 Total energy in the final basis set = -1510.21492243
   13   -1510.2526245566      7.83E-09 Convergence criterion met
 Total energy in the final basis set = -1510.25262456
   13   -1510.2696265747      9.97E-09 Convergence criterion met
 Total energy in the final basis set = -1510.26962657
   13   -1510.2757641029      7.66E-09 Convergence criterion met
 Total energy in the final basis set = -1510.27576410
    2   -1510.2757641029      8.54E-09 Convergence criterion met
 Total energy in the final basis set = -1510.27576410
   13   -1510.2781552305      3.05E-09 Convergence criterion met
 Total energy in the final basis set = -1510.27815523
    2   -1510.2781552304      2.86E-09 Convergence criterion met
   10   -1510.2795540568      8.25E-09 Convergence criterion met
 Total energy in the final basis set = -1510.27955406
    9   -1510.2795598337      8.17E-09 Convergence criterion met
 Total energy in the final basis set = -1510.27955983
    9   -1510.2795644948      6.01E-09 Convergence criterion met
 Total energy in the final basis set = -1510.27956449
    9   -1510.2795667162      5.79E-09 Convergence criterion met
 Total energy in the final basis set = -1510.27956672
    9   -1510.2795687675      4.59E-09 Convergence criterion met
 Total energy in the final basis set = -1510.27956877
    9   -1510.2795698379      3.21E-09 Convergence criterion met
 Total energy in the final basis set = -1510.27956984

             Standard Nuclear Orientation (Angstroms)
    I     Atom           X                Y                Z
 ----------------------------------------------------------------
    1      O       4.7131399566    -2.9426529946    -0.1844690458
    2      C       4.5946177209    -1.7627496709     0.2107189313
    3      C       4.9335261068    -0.4609957612    -0.6001059655
    4      C       3.6760537407     0.4499352038    -0.9263306721
    5      C       2.3326234269    -0.1608747575    -0.3918773099
    6      O       1.4095694276     0.8886896636    -0.1008931220
    7      C       0.1947163972     0.3290793706     0.5458221536
    8      C      -0.7122736151     1.5431698129     0.9390053069
    9      O      -2.0887240080     1.0326063654     1.1465109458
   10      C      -3.0016666070     1.7211801119     0.2805410557
   11      C      -4.4368620927     1.1088861084     0.4370064468
   12      C      -4.8605148647     0.1702457557    -0.7727977170
   13      C      -3.5919599792    -0.3894362579    -1.5274089397
   14      O      -2.5741946603     0.2583218193    -1.8602484503
   15      O       4.2094776185    -1.3900181935     1.5411967260
   16      O      -3.7794313370    -1.7701635166    -1.8416358217
   17      O      -2.6976315726     2.7210292584    -0.4069094870
   18      C      -2.5881600061    -2.2942869623    -2.5499517749
   19      C      -4.7086139720     0.1530499646     1.6771685288
   20      C      -6.2493223157     0.2589305914     2.0011737365
   21      C      -6.8591380344    -0.4821695033     0.7533684401
   22      C      -5.5561616820    -1.0065005330     0.0286666407
   23      O      -4.5838823786    -1.2182314299     1.1304206488
   24      H      -5.1268691653     1.9717023442     0.4714406488
   25      H      -5.5253023643     0.6840304025    -1.4910823470
   26      H      -4.0219741818     0.2962545085     2.5330887870
   27      H      -6.4806107178    -0.2741895775     2.9373821285
   28      H      -6.5919343594     1.3020957414     2.0912836286
   29      H      -7.4998493689    -1.3261576629     1.0533666730
   30      H      -7.4451086925     0.1906874720     0.1064715972
   31      H      -5.6803062590    -1.9348744637    -0.5602543531
   32      O       2.0805953161    -1.3760668436    -0.2274269791
   33      C       3.8060993094    -2.5946220161     2.2990728697
   34      C       5.8175612524     0.5584901414     0.2406778109
   35      C       6.4464828367     1.6092864887    -0.7587896658
   36      C       5.1965125728     2.5106779081    -1.0780804735
   37      C       4.0826118409     1.8053335184    -0.2085115923
   38      O       4.8170470122     1.3487803291     0.9929900677
   39      H       5.4452536903    -0.7745314692    -1.5265065431
   40      H       3.5698669922     0.5970162568    -2.0177883607
   41      H       4.6128504767    -3.3554819469     2.3247710782
   42      H       6.5342414199     0.0798279494     0.9354486773
   43      H       7.2443196910     2.1845563181    -0.2627704634
   44      H       6.8642490571     1.1270082830    -1.6570041004
   45      H       5.3487885479     3.5475977044    -0.7387422544
   46      H       4.9417286544     2.5238803994    -2.1498198156
   47      H       3.2195280158     2.4376338505     0.0755713575
   48      H       2.8984615905    -3.0573739783     1.8592611249
   49      H       3.5859762043    -2.2512683098     3.3266375454
   50      H      -2.8065247271    -3.3562945044    -2.7654843001
   51      H      -1.6774860490    -2.2228890039    -1.9206575591
   52      H      -2.4053192093    -1.7501596981    -3.4990410645
   53      H      -0.3564600618     2.0168071071     1.8774889853
   54      H      -0.7346690474     2.3026880830     0.1261931844
   55      H       0.4661068612    -0.2821203044     1.4328133864
   56      H      -0.3618096617    -0.3210109868    -0.1664084786
 ----------------------------------------------------------------

    9   -1510.2795702675      2.18E-09 Convergence criterion met
 Total energy in the final basis set = -1510.27957027
 Final energy is   -1510.27957026752
 **  OPTIMIZATION CONVERGED  **

                    Orbital Energies (a.u.)
 --------------------------------------------------------------

 Alpha MOs
 -- Occupied --
-18.942 -18.937 -18.930 -18.919 -18.886 -18.884 -18.880 -18.877
-18.873 -18.860 -10.104 -10.102 -10.099 -10.088 -10.072 -10.068
-10.066 -10.059 -10.059 -10.057 -10.056 -10.052 -10.042 -10.037
-10.037 -10.031 -10.021 -10.020 -10.018 -10.017  -1.019  -1.016
 -1.008  -0.997  -0.970  -0.967  -0.941  -0.939  -0.933  -0.922
 -0.765  -0.760  -0.726  -0.722  -0.715  -0.705  -0.692  -0.664
 -0.650  -0.613  -0.595  -0.577  -0.546  -0.542  -0.538  -0.535
 -0.517  -0.509  -0.486  -0.476  -0.467  -0.458  -0.447  -0.444
 -0.434  -0.432  -0.429  -0.416  -0.410  -0.406  -0.402  -0.401
 -0.393  -0.379  -0.375  -0.365  -0.361  -0.355  -0.352  -0.342
 -0.341  -0.335  -0.334  -0.330  -0.327  -0.326  -0.319  -0.311
 -0.309  -0.308  -0.302  -0.298  -0.293  -0.284  -0.279  -0.279
 -0.272  -0.260  -0.256  -0.246  -0.241  -0.234  -0.231  -0.184
 -0.179  -0.174  -0.163  -0.160  -0.156  -0.151  -0.144  -0.141
 -0.139

          Ground-State Mulliken Net Atomic Charges

     Atom                 Charge (a.u.)
  ----------------------------------------
      1 O                    -0.216497
      2 C                     0.212035
      3 C                    -0.080816
      4 C                    -0.077952
      5 C                     0.214899
      6 O                    -0.171116
      7 C                    -0.045260
      8 C                    -0.053888
      9 O                    -0.175005
     10 C                     0.213624
     11 C                    -0.081485
     12 C                    -0.075665
     13 C                     0.211702
     14 O                    -0.214239
     15 O                    -0.171695
     16 O                    -0.166579
     17 O                    -0.211590
     18 C                    -0.127118
     19 C                     0.023436
     20 C                    -0.142240
     21 C                    -0.145806
     22 C                     0.022737
     23 O                    -0.191028
     24 H                     0.083768
     25 H                     0.087681
     26 H                     0.089862
     27 H                     0.077993
     28 H                     0.073381
     29 H                     0.078306
     30 H                     0.073189
     31 H                     0.092512
     32 O                    -0.212844
     33 C                    -0.128583
     34 C                     0.026403
     35 C                    -0.144249
     36 C                    -0.144035
     37 C                     0.023812
     38 O                    -0.187648
     39 H                     0.083192
     40 H                     0.085295
     41 H                     0.087012
     42 H                     0.083722
     43 H                     0.077248
     44 H                     0.073355
     45 H                     0.077622
     46 H                     0.073154
     47 H                     0.090700
     48 H                     0.090705
     49 H                     0.087069
     50 H                     0.093081
     51 H                     0.091931
     52 H                     0.090553
     53 H                     0.084781
     54 H                     0.107953
     55 H                     0.090832
     56 H                     0.091794
  ----------------------------------------
  Sum of atomic charges =     0.000000

                    Cartesian Multipole Moments
 -----------------------------------------------------------------
    Charge (ESU x 10^10)
                 0.0000
    Dipole Moment (Debye)
         X      -1.7864      Y       0.7683      Z      -0.3971
       Tot       1.9847
    Quadrupole Moments (Debye-Ang)
        XX    -139.8976     XY       6.6411     YY    -167.8308
        XZ      -3.4320     YZ       1.1584     ZZ    -154.0485

 Total job time:  54.97s(wall), 2612.58s(cpu)
        *  Thank you very much for using Q-Chem.  Have a nice day.  *
