 Q-Chem 5.0, Q-Chem, Inc., Pleasanton, CA (2017)
 Q-Chem 5.0.1 for Intel X86 EM64T Linux

User input:
--------------------------------------------------------------
$molecule
0  1
O -4.8542395979 -2.721065106 0.5885278828
C -4.5163820204 -1.6208957164 0.0985330185
C -4.3112395649 -0.2768343413 0.8889994269
C -3.0017029047 0.5252275646 0.5180939359
C -1.9350094025 -0.3138788146 -0.2627223719
O -0.8235753226 0.5405305757 -0.5354867738
C 0.1565531222 -0.1540612035 -1.4044341115
C 1.0605086909 0.9210618281 -2.1103784152
O 2.4219987701 1.0162502603 -1.5320098033
C 2.4064650637 1.2684224662 -0.1248085185
C 3.8886959009 1.3201700457 0.4001163895
C 4.3079052867 0.003849782 1.1896393596
C 3.1590919886 -0.9963115316 1.5522812566
O 2.839595817 -1.34864741 2.7091595218
O -4.4986376719 -1.3476388175 -1.3098891214
O 2.5373305993 -1.5247751156 0.3695948651
O 1.3777987876 1.4525012118 0.56030443
C 1.5725780721 -2.5858465011 0.7592365081
C 4.9427180685 1.2900913508 -0.7830775904
C 6.3847935177 1.5824845067 -0.2033356551
C 6.745665123 0.1964004438 0.4483868207
C 5.4053007799 -0.6016939079 0.2045763772
O 4.9847453171 -0.1488156103 -1.1383997752
H 3.9932701136 2.2106945115 1.0457065841
H 4.7716533096 0.2802161877 2.1531654316
H 4.6560567289 1.8969429726 -1.6623821654
H 7.0813125648 1.8426475181 -1.0159723165
H 6.3754507069 2.4056391896 0.5291298122
H 7.5815606243 -0.2911827028 -0.0787081075
H 6.9997770488 0.2772891107 1.5171496741
H 5.4958304107 -1.7048350947 0.23263594
O -1.9746851818 -1.530286096 -0.5556505656
C -4.7114472596 -2.6019220405 -2.0638800339
C -5.4131523488 0.7713662073 0.4160081024
C -5.3784128343 2.0357607443 1.3652785067
C -4.1132034427 2.7982704184 0.8209438869
C -3.5986842093 1.7755445117 -0.2661597484
O -4.8547173375 1.2703868299 -0.8624247269
H -4.3714528852 -0.5004026271 1.9679736302
H -2.500320766 0.8812878401 1.4375257193
H -5.6387640451 -3.1208837677 -1.7463061465
H -6.4179190642 0.3352023758 0.2537788664
H -6.2958427787 2.633634929 1.2454723582
H -5.2793883969 1.7516482129 2.4253270859
H -4.3923750468 3.7529806503 0.3471783813
H -3.3609360753 2.9943757179 1.6011348902
H -2.9309160573 2.1953126085 -1.0431117238
H -3.8558616195 -3.2964618578 -1.9355014236
H -4.7928130723 -2.3094964548 -3.1269463819
H 1.2442157706 -3.0638110731 -0.1818146556
H 0.6913868321 -2.1636989091 1.2845736896
H 2.0459750225 -3.3416498493 1.417148126
H 1.2307051958 0.6432345401 -3.16939873
H 0.5436589677 1.9066012469 -2.073415339
H -0.3786098579 -0.7685214174 -2.1594648046
H 0.812296197 -0.8274066227 -0.8114104071
$end

$rem
JOBTYPE                   OPT
METHOD                    B3LYP
DFT_D                     d3_op
BASIS                     STO-3G
GEOM_OPT_MAX_CYCLES       100
GEOM_OPT_TOL_GRADIENT     300
GEOM_OPT_TOL_DISPLACEMENT 1200
GEOM_OPT_TOL_ENERGY       100
SYMMETRY                  False
THRESH                    12
SCF_CONVERGENCE           8
MAX_SUB_FILE_NUM          128
MEM_STATIC                400
MEM_TOTAL                 4000
$end
--------------------------------------------------------------

   16   -1510.2773465476      5.36E-09 Convergence criterion met
 Total energy in the final basis set = -1510.27734655
   14   -1510.2801606754      4.79E-09 Convergence criterion met
 Total energy in the final basis set = -1510.28016068
   14   -1510.2823215502      5.81E-09 Convergence criterion met
 Total energy in the final basis set = -1510.28232155
   15   -1510.2709792944      5.11E-09 Convergence criterion met
 Total energy in the final basis set = -1510.27097929
   14   -1510.2834743700      6.13E-09 Convergence criterion met
 Total energy in the final basis set = -1510.28347437
   12   -1510.2844942846      8.94E-09 Convergence criterion met
 Total energy in the final basis set = -1510.28449428
   13   -1510.2852843267      3.96E-09 Convergence criterion met
 Total energy in the final basis set = -1510.28528433
   13   -1510.2856870765      7.14E-09 Convergence criterion met
   12   -1510.2949259433      4.56E-09 Convergence criterion met
 Total energy in the final basis set = -1510.29492594
   12   -1510.2949985715      2.92E-09 Convergence criterion met
 Total energy in the final basis set = -1510.29499857
   12   -1510.2950787978      6.53E-09 Convergence criterion met
 Total energy in the final basis set = -1510.29507880
   12   -1510.2951185615      3.23E-09 Convergence criterion met
 Total energy in the final basis set = -1510.29511856
   11   -1510.2951349176      6.88E-09 Convergence criterion met
 Total energy in the final basis set = -1510.29513492
   11   -1510.2951187658      5.54E-09 Convergence criterion met
 Total energy in the final basis set = -1510.29511877

             Standard Nuclear Orientation (Angstroms)
    I     Atom           X                Y                Z
 ----------------------------------------------------------------
    1      O       1.6639110928    -2.4659169296    -0.6844273986
    2      C       2.4714139671    -1.6316620548    -0.2053857674
    3      C       2.9887553966    -0.3298625889    -0.9156377049
    4      C       2.3173229195     1.0077058586    -0.3963843131
    5      C       1.3228648471     0.7671835697     0.7882719215
    6      O       1.0957783123     2.0098179126     1.4561208567
    7      C       0.1018182069     1.8466827655     2.5417787712
    8      C      -1.1649295872     2.7394324473     2.2430328803
    9      O      -2.3759182182     1.9692840189     1.8769475517
   10      C      -2.2760165277     1.4280451898     0.5546348805
   11      C      -3.6443455592     0.7379518442     0.2300509739
   12      C      -3.6824895014    -0.0157532289    -1.1621424158
   13      C      -2.3491093286     0.0582968091    -1.9976007901
   14      O      -2.1233291237     0.8202715702    -2.9641374346
   15      O       3.1498957238    -1.8070241835     1.0367480351
   16      O      -1.4651969064    -0.9644194770    -1.5430875389
   17      O      -1.2660523419     1.5315197346    -0.1751748052
   18      C      -0.2209500268    -0.9645686146    -2.3457745649
   19      C      -3.9600786324    -0.4547080261     1.2343162727
   20      C      -5.4978889603    -0.7990760802     1.1228652244
   21      C      -5.5389192217    -1.5509542789    -0.2588462159
   22      C      -4.0181105391    -1.4935870175    -0.6838880970
   23      O      -3.2952838060    -1.6150631082     0.6037353816
   24      H      -4.4285192436     1.5157101672     0.2866816191
   25      H      -4.4862771433     0.3972756844    -1.7968648448
   26      H      -3.5811063383    -0.2923256103     2.2619628058
   27      H      -5.8050439799    -1.4568279605     1.9514901428
   28      H      -6.1282190770     0.1042692789     1.1365465735
   29      H      -5.8660268028    -2.5960891570    -0.1395565960
   30      H      -6.1950243099    -1.0579204963    -0.9936965360
   31      H      -3.6923304525    -2.2855725793    -1.3848776135
   32      O       0.8060038170    -0.3216209479     1.1277561972
   33      C       2.6132395398    -2.9990296203     1.7328897231
   34      C       4.5197673355    -0.0251490199    -0.6171101434
   35      C       5.0422598120     0.9865715394    -1.7120730353
   36      C       4.3577868657     2.3227066099    -1.2396450993
   37      C       3.5945082512     1.8352351082     0.0534698317
   38      O       4.4832958323     0.7927698001     0.6169614260
   39      H       2.8082043515    -0.4585833975    -1.9969462605
   40      H       1.7617353595     1.5222974040    -1.2024375784
   41      H       2.7878647971    -3.9263289913     1.1495140157
   42      H       5.1454304030    -0.9257778814    -0.4665060381
   43      H       6.1406695826     1.0605963730    -1.6725075087
   44      H       4.7439766569     0.6898941598    -2.7303575306
   45      H       5.1046873781     3.0896404561    -0.9797792313
   46      H       3.6712689543     2.7403583424    -1.9935337422
   47      H       3.3769439577     2.6171718132     0.8062263368
   48      H       1.5245570863    -2.8949477534     1.9174761434
   49      H       3.1533805738    -3.0580245687     2.6955179787
   50      H       0.4973984256    -1.6251063247    -1.8015026186
   51      H       0.1893843761     0.0604101636    -2.4367166492
   52      H      -0.4102814098    -1.3537558655    -3.3671844416
   53      H      -1.4553093938     3.2958621492     3.1564551797
   54      H      -0.9000610958     3.4657938897     1.4432318380
   55      H       0.5799777282     2.1763114609     3.4874188667
   56      H      -0.1760531746     0.7716902212     2.6185683084
 ----------------------------------------------------------------

    9   -1510.2951192040      6.78E-09 Convergence criterion met
 Total energy in the final basis set = -1510.29511920
 Final energy is   -1510.29511920402
 **  OPTIMIZATION CONVERGED  **

                    Orbital Energies (a.u.)
 --------------------------------------------------------------

 Alpha MOs
 -- Occupied --
-18.939 -18.939 -18.931 -18.908 -18.887 -18.885 -18.885 -18.882
-18.870 -18.845 -10.107 -10.106 -10.098 -10.079 -10.078 -10.073
-10.059 -10.059 -10.057 -10.056 -10.052 -10.040 -10.036 -10.035
-10.026 -10.021 -10.020 -10.018 -10.016 -10.014  -1.023  -1.014
 -1.005  -0.986  -0.969  -0.964  -0.946  -0.941  -0.930  -0.910
 -0.763  -0.758  -0.728  -0.720  -0.713  -0.703  -0.694  -0.655
 -0.635  -0.620  -0.594  -0.578  -0.545  -0.540  -0.536  -0.531
 -0.514  -0.507  -0.487  -0.471  -0.464  -0.455  -0.449  -0.438
 -0.432  -0.430  -0.428  -0.410  -0.406  -0.403  -0.397  -0.394
 -0.385  -0.383  -0.372  -0.366  -0.361  -0.354  -0.349  -0.340
 -0.336  -0.331  -0.330  -0.326  -0.323  -0.319  -0.317  -0.313
 -0.311  -0.305  -0.301  -0.298  -0.294  -0.280  -0.276  -0.275
 -0.266  -0.260  -0.252  -0.246  -0.234  -0.230  -0.225  -0.191
 -0.174  -0.169  -0.162  -0.158  -0.152  -0.146  -0.143  -0.138
 -0.128

          Ground-State Mulliken Net Atomic Charges

     Atom                 Charge (a.u.)
  ----------------------------------------
      1 O                    -0.215417
      2 C                     0.222149
      3 C                    -0.081425
      4 C                    -0.076400
      5 C                     0.225772
      6 O                    -0.171235
      7 C                    -0.056280
      8 C                    -0.050380
      9 O                    -0.174086
     10 C                     0.215476
     11 C                    -0.077946
     12 C                    -0.081750
     13 C                     0.210145
     14 O                    -0.226230
     15 O                    -0.166030
     16 O                    -0.169249
     17 O                    -0.208455
     18 C                    -0.146821
     19 C                     0.025338
     20 C                    -0.143830
     21 C                    -0.144760
     22 C                     0.027279
     23 O                    -0.185110
     24 H                     0.084887
     25 H                     0.080821
     26 H                     0.085160
     27 H                     0.077049
     28 H                     0.072324
     29 H                     0.076953
     30 H                     0.072650
     31 H                     0.087568
     32 O                    -0.206392
     33 C                    -0.127280
     34 C                     0.026281
     35 C                    -0.143975
     36 C                    -0.144121
     37 C                     0.024020
     38 O                    -0.188428
     39 H                     0.084989
     40 H                     0.093138
     41 H                     0.087625
     42 H                     0.085642
     43 H                     0.077736
     44 H                     0.074089
     45 H                     0.077799
     46 H                     0.074893
     47 H                     0.089421
     48 H                     0.097554
     49 H                     0.089231
     50 H                     0.113138
     51 H                     0.075010
     52 H                     0.071435
     53 H                     0.090822
     54 H                     0.095439
     55 H                     0.087190
     56 H                     0.106576
  ----------------------------------------
  Sum of atomic charges =    -0.000000

                    Cartesian Multipole Moments
 -----------------------------------------------------------------
    Charge (ESU x 10^10)
                 0.0000
    Dipole Moment (Debye)
         X      -0.2477      Y       1.5824      Z       1.4783
       Tot       2.1796
    Quadrupole Moments (Debye-Ang)
        XX    -145.8767     XY      -1.2725     YY    -156.1341
        XZ      -8.2551     YZ       4.0935     ZZ    -157.3403

 Total job time:  165.05s(wall), 7864.97s(cpu)
        *  Thank you very much for using Q-Chem.  Have a nice day.  *
