 Q-Chem 5.0, Q-Chem, Inc., Pleasanton, CA (2017)
 Q-Chem 5.0.1 for Intel X86 EM64T Linux

User input:
--------------------------------------------------------------
$molecule
0  1
O -3.94934 -3.66094 2.70899
C -3.26408 -4.56952 2.26188
C -3.36658 -6.02376 2.66595
C -3.36795 -7.06811 1.5376
C -3.08802 -6.55426 0.14271
O -3.11088 -7.59047 -0.74677
C -2.7143 -7.20743 -2.06785
C -2.27055 -8.43314 -2.85959
O -3.28891 -8.80134 -3.80312
C -4.51932 -9.02124 -3.27693
C -5.55129 -9.37469 -4.32134
C -6.52924 -8.24429 -4.67359
C -6.12677 -6.85626 -4.21742
O -6.76857 -6.14626 -3.45679
O -2.10459 -4.20855 1.64078
O -4.96909 -6.35555 -4.72952
O -4.81234 -8.95265 -2.09182
C -4.56831 -5.03984 -4.60674
C -5.01103 -9.68652 -5.74444
C -6.01376 -10.56416 -6.49513
C -7.13189 -9.57149 -6.7414
C -6.48093 -8.29069 -6.20836
O -5.10761 -8.4754 -6.45257
H -6.0493 -10.30381 -3.96274
H -7.53993 -8.44029 -4.25184
H -4.01502 -10.18009 -5.74747
H -5.54616 -10.81929 -7.47352
H -6.31661 -11.50313 -5.98392
H -7.30813 -9.50517 -7.83791
H -8.08523 -9.78904 -6.21261
H -6.94327 -7.38942 -6.66845
O -3.0865 -5.38957 -0.22918
C -1.7515 -2.91219 1.32562
C -2.12526 -6.47223 3.46133
C -2.4565 -7.70389 4.30313
C -2.54603 -8.76352 3.22609
C -2.17614 -7.9367 1.99094
O -1.25977 -6.99011 2.48232
H -4.26763 -6.11348 3.31394
H -4.31689 -7.64846 1.49475
H -1.67894 -2.29862 2.24891
H -1.70948 -5.66705 4.10667
H -1.57035 -7.92244 4.94113
H -3.35708 -7.60063 4.94592
H -1.76053 -9.52776 3.42
H -3.53686 -9.25649 3.12293
H -1.79696 -8.60632 1.18792
H -2.50228 -2.46906 0.63686
H -0.7633 -2.91729 0.82185
H -3.58044 -4.91363 -5.09508
H -4.48318 -4.74986 -3.53845
H -5.30247 -4.3733 -5.10735
H -1.38982 -8.16313 -3.48241
H -1.96384 -9.27359 -2.19842
H -1.76702 -6.62551 -1.95876
H -3.43308 -6.5476 -2.58629
$end

$opt
CONSTRAINT
tors           1           2           3           4    +134.469
tors           3           4           5           6    +179.501
tors           4           5           6           7    -173.732
tors           5           6           7           8    +159.302
tors           6           7           8           9    +104.689
tors           7           8           9          10     -55.433
tors           8           9          10          11    +178.745
tors           9          10          11          12    -104.223
tors          11          12          13          14    -119.972
ENDCONSTRAINT
$end

$rem
JOBTYPE                   OPT
METHOD                    B3LYP
DFT_D                     d3_op
BASIS                     STO-3G
GEOM_OPT_MAX_CYCLES       100
GEOM_OPT_TOL_GRADIENT     300
GEOM_OPT_TOL_DISPLACEMENT 1200
GEOM_OPT_TOL_ENERGY       100
SYMMETRY                  False
THRESH                    12
SCF_CONVERGENCE           8
MAX_SUB_FILE_NUM          128
MEM_STATIC                400
MEM_TOTAL                 4000
$end
--------------------------------------------------------------

   15   -1510.1407519709      6.46E-09 Convergence criterion met
 Total energy in the final basis set = -1510.14075197
   14   -1510.2111000714      5.87E-09 Convergence criterion met
 Total energy in the final basis set = -1510.21110007
   14   -1510.2478243723      5.48E-09 Convergence criterion met
 Total energy in the final basis set = -1510.24782437
   14   -1510.2633368442      7.85E-09 Convergence criterion met
 Total energy in the final basis set = -1510.26333684
   14   -1510.2694854775      4.78E-09 Convergence criterion met
 Total energy in the final basis set = -1510.26948548
   13   -1510.2719711880      9.09E-09 Convergence criterion met
 Total energy in the final basis set = -1510.27197119
   13   -1510.2734680992      2.71E-09 Convergence criterion met
 Total energy in the final basis set = -1510.27346810
   13   -1510.2743617629      7.75E-09 Convergence criterion met
   11   -1510.2772658789      6.40E-09 Convergence criterion met
 Total energy in the final basis set = -1510.27726588
   11   -1510.2772822373      5.86E-09 Convergence criterion met
 Total energy in the final basis set = -1510.27728224
   11   -1510.2772919337      3.33E-09 Convergence criterion met
 Total energy in the final basis set = -1510.27729193
   11   -1510.2772977919      2.82E-09 Convergence criterion met
 Total energy in the final basis set = -1510.27729779
   10   -1510.2772992107      9.53E-09 Convergence criterion met
 Total energy in the final basis set = -1510.27729921
    9   -1510.2773002587      9.85E-09 Convergence criterion met
 Total energy in the final basis set = -1510.27730026

             Standard Nuclear Orientation (Angstroms)
    I     Atom           X                Y                Z
 ----------------------------------------------------------------
    1      O      -4.8542395979    -2.7210651060     0.5885278828
    2      C      -4.5163820204    -1.6208957164     0.0985330185
    3      C      -4.3112395649    -0.2768343413     0.8889994269
    4      C      -3.0017029047     0.5252275646     0.5180939359
    5      C      -1.9350094025    -0.3138788146    -0.2627223719
    6      O      -0.8235753226     0.5405305757    -0.5354867738
    7      C       0.1565531222    -0.1540612035    -1.4044341115
    8      C       1.0605086909     0.9210618281    -2.1103784152
    9      O       2.4219987701     1.0162502603    -1.5320098033
   10      C       2.4064650637     1.2684224662    -0.1248085185
   11      C       3.8886959009     1.3201700457     0.4001163895
   12      C       4.3079052867     0.0038497820     1.1896393596
   13      C       3.1590919886    -0.9963115316     1.5522812566
   14      O       2.8395958170    -1.3486474100     2.7091595218
   15      O      -4.4986376719    -1.3476388175    -1.3098891214
   16      O       2.5373305993    -1.5247751156     0.3695948651
   17      O       1.3777987876     1.4525012118     0.5603044300
   18      C       1.5725780721    -2.5858465011     0.7592365081
   19      C       4.9427180685     1.2900913508    -0.7830775904
   20      C       6.3847935177     1.5824845067    -0.2033356551
   21      C       6.7456651230     0.1964004438     0.4483868207
   22      C       5.4053007799    -0.6016939079     0.2045763772
   23      O       4.9847453171    -0.1488156103    -1.1383997752
   24      H       3.9932701136     2.2106945115     1.0457065841
   25      H       4.7716533096     0.2802161877     2.1531654316
   26      H       4.6560567289     1.8969429726    -1.6623821654
   27      H       7.0813125648     1.8426475181    -1.0159723165
   28      H       6.3754507069     2.4056391896     0.5291298122
   29      H       7.5815606243    -0.2911827028    -0.0787081075
   30      H       6.9997770488     0.2772891107     1.5171496741
   31      H       5.4958304107    -1.7048350947     0.2326359400
   32      O      -1.9746851818    -1.5302860960    -0.5556505656
   33      C      -4.7114472596    -2.6019220405    -2.0638800339
   34      C      -5.4131523488     0.7713662073     0.4160081024
   35      C      -5.3784128343     2.0357607443     1.3652785067
   36      C      -4.1132034427     2.7982704184     0.8209438869
   37      C      -3.5986842093     1.7755445117    -0.2661597484
   38      O      -4.8547173375     1.2703868299    -0.8624247269
   39      H      -4.3714528852    -0.5004026271     1.9679736302
   40      H      -2.5003207660     0.8812878401     1.4375257193
   41      H      -5.6387640451    -3.1208837677    -1.7463061465
   42      H      -6.4179190642     0.3352023758     0.2537788664
   43      H      -6.2958427787     2.6336349290     1.2454723582
   44      H      -5.2793883969     1.7516482129     2.4253270859
   45      H      -4.3923750468     3.7529806503     0.3471783813
   46      H      -3.3609360753     2.9943757179     1.6011348902
   47      H      -2.9309160573     2.1953126085    -1.0431117238
   48      H      -3.8558616195    -3.2964618578    -1.9355014236
   49      H      -4.7928130723    -2.3094964548    -3.1269463819
   50      H       1.2442157706    -3.0638110731    -0.1818146556
   51      H       0.6913868321    -2.1636989091     1.2845736896
   52      H       2.0459750225    -3.3416498493     1.4171481260
   53      H       1.2307051958     0.6432345401    -3.1693987300
   54      H       0.5436589677     1.9066012469    -2.0734153390
   55      H      -0.3786098579    -0.7685214174    -2.1594648046
   56      H       0.8122961970    -0.8274066227    -0.8114104071
 ----------------------------------------------------------------

    9   -1510.2773016058      8.62E-09 Convergence criterion met
 Total energy in the final basis set = -1510.27730161
 Final energy is   -1510.27730160576
 **  OPTIMIZATION CONVERGED  **

                    Orbital Energies (a.u.)
 --------------------------------------------------------------

 Alpha MOs
 -- Occupied --
-18.939 -18.935 -18.934 -18.917 -18.889 -18.886 -18.878 -18.875
-18.874 -18.857 -10.101 -10.100 -10.099 -10.086 -10.077 -10.069
-10.064 -10.062 -10.060 -10.058 -10.057 -10.050 -10.040 -10.039
-10.034 -10.031 -10.022 -10.021 -10.018 -10.017  -1.017  -1.013
 -1.008  -0.995  -0.971  -0.967  -0.938  -0.938  -0.936  -0.920
 -0.765  -0.760  -0.728  -0.720  -0.714  -0.705  -0.694  -0.662
 -0.649  -0.618  -0.598  -0.581  -0.547  -0.542  -0.538  -0.535
 -0.517  -0.511  -0.485  -0.476  -0.470  -0.461  -0.440  -0.436
 -0.433  -0.429  -0.424  -0.414  -0.411  -0.406  -0.403  -0.400
 -0.388  -0.382  -0.373  -0.365  -0.361  -0.358  -0.349  -0.347
 -0.342  -0.340  -0.333  -0.331  -0.327  -0.326  -0.319  -0.311
 -0.308  -0.306  -0.303  -0.302  -0.296  -0.289  -0.280  -0.277
 -0.270  -0.258  -0.251  -0.248  -0.238  -0.235  -0.231  -0.184
 -0.177  -0.175  -0.163  -0.158  -0.153  -0.146  -0.144  -0.140
 -0.136

          Ground-State Mulliken Net Atomic Charges

     Atom                 Charge (a.u.)
  ----------------------------------------
      1 O                    -0.220347
      2 C                     0.212496
      3 C                    -0.080273
      4 C                    -0.079126
      5 C                     0.212397
      6 O                    -0.166043
      7 C                    -0.053597
      8 C                    -0.046300
      9 O                    -0.167492
     10 C                     0.209110
     11 C                    -0.077872
     12 C                    -0.080518
     13 C                     0.206651
     14 O                    -0.209131
     15 O                    -0.167498
     16 O                    -0.170543
     17 O                    -0.210971
     18 C                    -0.131043
     19 C                     0.025889
     20 C                    -0.145407
     21 C                    -0.142841
     22 C                     0.025892
     23 O                    -0.185225
     24 H                     0.085511
     25 H                     0.085841
     26 H                     0.089088
     27 H                     0.077900
     28 H                     0.073243
     29 H                     0.078057
     30 H                     0.074137
     31 H                     0.083268
     32 O                    -0.214236
     33 C                    -0.127502
     34 C                     0.026385
     35 C                    -0.145058
     36 C                    -0.142358
     37 C                     0.026606
     38 O                    -0.185516
     39 H                     0.084459
     40 H                     0.088056
     41 H                     0.086974
     42 H                     0.082467
     43 H                     0.077423
     44 H                     0.074049
     45 H                     0.077104
     46 H                     0.075098
     47 H                     0.085362
     48 H                     0.088537
     49 H                     0.086702
     50 H                     0.093346
     51 H                     0.092533
     52 H                     0.091668
     53 H                     0.093524
     54 H                     0.090816
     55 H                     0.089646
     56 H                     0.098662
  ----------------------------------------
  Sum of atomic charges =    -0.000000

                    Cartesian Multipole Moments
 -----------------------------------------------------------------
    Charge (ESU x 10^10)
                 0.0000
    Dipole Moment (Debye)
         X       2.1054      Y       1.9289      Z      -0.5189
       Tot       2.9021
    Quadrupole Moments (Debye-Ang)
        XX    -150.8973     XY      -2.5091     YY    -157.9613
        XZ       0.5351     YZ       4.6079     ZZ    -161.2270

 Total job time:  70.45s(wall), 3351.42s(cpu)
        *  Thank you very much for using Q-Chem.  Have a nice day.  *
