 Q-Chem 5.0, Q-Chem, Inc., Pleasanton, CA (2017)
 Q-Chem 5.0.1 for Intel X86 EM64T Linux

User input:
--------------------------------------------------------------
$molecule
0  1
O -5.4990085969 -1.3030913719 1.3561541528
C -4.6379929375 -0.7875489484 0.6116673495
C -4.0421490885 0.6578553117 0.7072428303
C -2.4645550634 0.7129515863 0.5613323975
C -1.7965840016 -0.7120455415 0.5595337489
O -0.7957409469 -0.7540075457 -0.4557255317
C -0.2186880991 -2.1139272104 -0.5795649877
C 0.8193100006 -2.0336182449 -1.7455380818
O 2.1729632721 -1.6456920903 -1.2831651341
C 2.4235000779 -0.2700228314 -1.6025482583
C 3.7389900672 0.2377687327 -0.9175343673
C 3.5936751867 1.172223408 0.355933236
C 2.2651417381 1.1315047733 1.1835664688
O 1.8129877274 2.072736085 1.8737779596
O -4.0949954469 -1.4235143016 -0.5544371696
O 1.7536444637 -0.2048840482 1.233470863
O 1.6736286638 0.4243062823 -2.3260559932
C 0.7881160269 -0.3085237143 2.3539209867
C 4.7214463762 -0.8919859166 -0.3740140047
C 6.1881484756 -0.3186512006 -0.4738111462
C 6.1469519582 0.7770407072 0.6558301109
C 4.7190539032 0.5220282681 1.2851552694
O 4.4850793762 -0.9244671779 1.0874319036
H 4.2561463896 0.8261817126 -1.698504745
H 3.8113079782 2.2264555088 0.1103476453
H 4.5590062641 -1.893253336 -0.8162250206
H 6.9235947078 -1.1056284121 -0.2415853619
H 6.4147191752 0.0972915952 -1.4684333284
H 6.9347006419 0.6167099478 1.4086203902
H 6.2424581328 1.8002126001 0.2582924508
H 4.6270566341 0.7886013011 2.3561906363
O -2.0487842718 -1.6621029697 1.3339007152
C -4.5862124064 -2.8156970134 -0.649127656
C -4.4728484346 1.5206293057 -0.5596237588
C -4.1253589605 3.0376054759 -0.2821522178
C -2.5661947599 3.0398841875 -0.4991471178
C -2.3027568257 1.5130729768 -0.8000531554
O -3.4911332279 1.1128296212 -1.588603491
H -4.3876732682 1.1079719542 1.6537854459
H -2.0258487309 1.2835657332 1.4015355099
H -5.6935038872 -2.8639460089 -0.6175000596
H -5.5057155066 1.3313383741 -0.9112064815
H -4.6379959992 3.6892739862 -1.0073136428
H -4.412391654 3.3470831896 0.7356940993
H -2.2804286928 3.6559397342 -1.3665699695
H -2.0112041076 3.3936688664 0.3842970956
H -1.3705028043 1.2788109079 -1.3489681947
H -4.1810816861 -3.4398157856 0.1741738166
H -4.2240603118 -3.2030047761 -1.6192738001
H 0.3399726036 -1.3163949252 2.2959409578
H -0.0087759191 0.4577596047 2.2857049307
H 1.3024861942 -0.1905277529 3.3295008514
H 0.9199133047 -3.0330639073 -2.2171964713
H 0.4685067572 -1.2928995848 -2.4976848154
H -1.0154454545 -2.8483220807 -0.8301305897
H 0.274451338 -2.4388610567 0.3617996562
$end

$rem
JOBTYPE                   OPT
METHOD                    B3LYP
DFT_D                     d3_op
BASIS                     STO-3G
GEOM_OPT_MAX_CYCLES       100
GEOM_OPT_TOL_GRADIENT     300
GEOM_OPT_TOL_DISPLACEMENT 1200
GEOM_OPT_TOL_ENERGY       100
SYMMETRY                  False
THRESH                    12
SCF_CONVERGENCE           8
MAX_SUB_FILE_NUM          128
MEM_STATIC                400
MEM_TOTAL                 4000
$end
--------------------------------------------------------------

   16   -1510.2785413009      5.72E-09 Convergence criterion met
 Total energy in the final basis set = -1510.27854130
   15   -1510.2785830211      2.19E-09 Convergence criterion met
 Total energy in the final basis set = -1510.27858302
   13   -1510.2821200866      4.21E-09 Convergence criterion met
 Total energy in the final basis set = -1510.28212009
   13   -1510.2819269349      9.85E-09 Convergence criterion met
 Total energy in the final basis set = -1510.28192693
   15   -1510.2843313155      3.74E-09 Convergence criterion met
 Total energy in the final basis set = -1510.28433132
   14   -1510.2847957433      1.93E-09 Convergence criterion met
 Total energy in the final basis set = -1510.28479574
   13   -1510.2864034904      7.90E-09 Convergence criterion met
 Total energy in the final basis set = -1510.28640349
   14   -1510.2870336551      5.25E-09 Convergence criterion met
   12   -1510.2883144128      7.06E-09 Convergence criterion met
 Total energy in the final basis set = -1510.28831441
   11   -1510.2882988537      4.24E-09 Convergence criterion met
 Total energy in the final basis set = -1510.28829885
   11   -1510.2883003884      4.07E-09 Convergence criterion met
 Total energy in the final basis set = -1510.28830039
   11   -1510.2883039641      5.17E-09 Convergence criterion met
 Total energy in the final basis set = -1510.28830396
   11   -1510.2883024402      2.20E-09 Convergence criterion met
 Total energy in the final basis set = -1510.28830244
    9   -1510.2882899493      8.37E-09 Convergence criterion met
 Total energy in the final basis set = -1510.28828995

             Standard Nuclear Orientation (Angstroms)
    I     Atom           X                Y                Z
 ----------------------------------------------------------------
    1      O      -5.7373929877    -1.0986220270     0.7309019386
    2      C      -4.6661597175    -0.6786402144     0.2442181594
    3      C      -4.0389464247     0.7463513129     0.3900708580
    4      C      -2.4974535332     0.7151473065     0.7665578874
    5      C      -1.9610025787    -0.7396260735     1.0476564803
    6      O      -0.8601557903    -0.9758104867     0.1739497299
    7      C      -0.3164797315    -2.3410518346     0.3127840023
    8      C       0.6190217949    -2.5575414606    -0.9275515836
    9      O       1.9428302180    -1.9078813087    -0.7761623610
   10      C       1.8962455822    -0.5191501658    -1.1207251173
   11      C       3.3466082275     0.0875084501    -1.0729474689
   12      C       3.4966764208     1.2968332776    -0.0534862153
   13      C       2.2543297509     1.5337072646     0.8676303277
   14      O       1.6833295247     2.6205261580     1.1037611899
   15      O      -3.7990139785    -1.4638946068    -0.5885669718
   16      O       1.8803937869     0.2837226922     1.4604097699
   17      O       0.8678052222     0.0946420546    -1.4808083449
   18      C       0.8058173950     0.5018076994     2.4550203049
   19      C       4.4719903209    -0.9006004382    -0.5474920098
   20      C       5.8686664566    -0.3446180002    -1.0324150417
   21      C       6.0424115801     0.8990817283    -0.0845258737
   22      C       4.7397514808     0.7926664404     0.8036197961
   23      O       4.5010413227    -0.6628671485     0.9142694484
   24      H       3.5778625457     0.4348970556    -2.0971448977
   25      H       3.7128752113     2.2447545795    -0.5763760500
   26      H       4.2757558848    -1.9675553247    -0.7636768222
   27      H       6.6592160140    -1.0929046447    -0.8633435128
   28      H       5.8620478193    -0.0710309121    -2.0995478089
   29      H       6.9443331927     0.8093813367     0.5414973268
   30      H       6.0886888190     1.8515586078    -0.6362480611
   31      H       4.8181786385     1.2508726739     1.8087019936
   32      O      -2.3662641099    -1.5530882647     1.9071302720
   33      C      -4.2980051852    -2.8536244156    -0.6791750247
   34      C      -3.9761126369     1.4980264379    -1.0116402789
   35      C      -3.6402261131     3.0209716947    -0.7496532770
   36      C      -2.1009105473     2.9439096112    -0.4270028937
   37      C      -1.8480146722     1.3896575218    -0.5196868418
   38      O      -2.7420172653     0.9629977613    -1.6224270902
   39      H      -4.6346819891     1.3059300675     1.1320400367
   40      H      -2.3178479260     1.3219483837     1.6735083330
   41      H      -5.3542264675    -2.8902231695    -1.0144918200
   42      H      -4.8494677133     1.3151429083    -1.6677223832
   43      H      -3.8356153092     3.6172918604    -1.6551781257
   44      H      -4.2308665216     3.4383038963     0.0815884874
   45      H      -1.5032343948     3.4752025396    -1.1844540493
   46      H      -1.8507462093     3.3493699517     0.5662616433
   47      H      -0.8071413602     1.0662792122    -0.7346047112
   48      H      -4.2193991302    -3.3722392627     0.2988958050
   49      H      -3.6540337864    -3.3623804134    -1.4199090697
   50      H       0.4332615903    -0.4990155996     2.7384939739
   51      H      -0.0201155946     1.1077402499     2.0352672846
   52      H       1.1968738267     1.0165254961     3.3567033305
   53      H       0.8374106265    -3.6391726328    -1.0406428466
   54      H       0.0970097458    -2.1828948548    -1.8344064462
   55      H      -1.1338578773    -3.0957342701     0.3116314149
   56      H       0.2621418689    -2.4532745648     1.2566710336
 ----------------------------------------------------------------

    9   -1510.2882907499      7.07E-09 Convergence criterion met
 Total energy in the final basis set = -1510.28829075
 Final energy is   -1510.28829074990
 **  OPTIMIZATION CONVERGED  **

                    Orbital Energies (a.u.)
 --------------------------------------------------------------

 Alpha MOs
 -- Occupied --
-18.938 -18.935 -18.930 -18.930 -18.889 -18.877 -18.877 -18.875
-18.872 -18.864 -10.104 -10.098 -10.096 -10.094 -10.079 -10.075
-10.063 -10.062 -10.061 -10.058 -10.053 -10.040 -10.039 -10.038
-10.031 -10.029 -10.022 -10.020 -10.012 -10.008  -1.018  -1.011
 -1.008  -1.002  -0.971  -0.959  -0.940  -0.936  -0.933  -0.931
 -0.764  -0.756  -0.727  -0.721  -0.713  -0.703  -0.691  -0.661
 -0.656  -0.617  -0.596  -0.580  -0.547  -0.539  -0.537  -0.528
 -0.515  -0.510  -0.488  -0.482  -0.470  -0.463  -0.441  -0.434
 -0.432  -0.424  -0.420  -0.417  -0.411  -0.410  -0.407  -0.401
 -0.390  -0.379  -0.373  -0.365  -0.362  -0.357  -0.352  -0.350
 -0.344  -0.343  -0.337  -0.332  -0.324  -0.316  -0.315  -0.309
 -0.305  -0.301  -0.300  -0.296  -0.290  -0.289  -0.287  -0.276
 -0.269  -0.253  -0.250  -0.249  -0.244  -0.234  -0.222  -0.179
 -0.177  -0.175  -0.170  -0.160  -0.152  -0.149  -0.144  -0.141
 -0.133

          Ground-State Mulliken Net Atomic Charges

     Atom                 Charge (a.u.)
  ----------------------------------------
      1 O                    -0.211224
      2 C                     0.210572
      3 C                    -0.079744
      4 C                    -0.079645
      5 C                     0.212976
      6 O                    -0.167731
      7 C                    -0.045283
      8 C                    -0.046556
      9 O                    -0.168603
     10 C                     0.217508
     11 C                    -0.078126
     12 C                    -0.078895
     13 C                     0.208636
     14 O                    -0.213125
     15 O                    -0.167371
     16 O                    -0.166349
     17 O                    -0.210849
     18 C                    -0.128409
     19 C                     0.024183
     20 C                    -0.143907
     21 C                    -0.144299
     22 C                     0.026117
     23 O                    -0.185973
     24 H                     0.084478
     25 H                     0.085718
     26 H                     0.092011
     27 H                     0.077795
     28 H                     0.073012
     29 H                     0.078127
     30 H                     0.074148
     31 H                     0.082065
     32 O                    -0.226751
     33 C                    -0.129081
     34 C                     0.025756
     35 C                    -0.144384
     36 C                    -0.144609
     37 C                     0.016517
     38 O                    -0.187527
     39 H                     0.084346
     40 H                     0.079613
     41 H                     0.090968
     42 H                     0.079862
     43 H                     0.076252
     44 H                     0.071811
     45 H                     0.078407
     46 H                     0.072675
     47 H                     0.110823
     48 H                     0.089241
     49 H                     0.087842
     50 H                     0.090764
     51 H                     0.091770
     52 H                     0.085657
     53 H                     0.089774
     54 H                     0.099790
     55 H                     0.090470
     56 H                     0.088758
  ----------------------------------------
  Sum of atomic charges =    -0.000000

                    Cartesian Multipole Moments
 -----------------------------------------------------------------
    Charge (ESU x 10^10)
                -0.0000
    Dipole Moment (Debye)
         X       2.4845      Y      -0.3962      Z      -1.0810
       Tot       2.7382
    Quadrupole Moments (Debye-Ang)
        XX    -158.4952     XY      -0.7743     YY    -153.1505
        XZ      -0.3428     YZ       6.4443     ZZ    -160.8917

 Total job time:  76.51s(wall), 3643.36s(cpu)
        *  Thank you very much for using Q-Chem.  Have a nice day.  *
