 Q-Chem 5.0, Q-Chem, Inc., Pleasanton, CA (2017)
 Q-Chem 5.0.1 for Intel X86 EM64T Linux

User input:
--------------------------------------------------------------
$molecule
0  1
O -3.94934 -3.66094 2.70899
C -3.26408 -4.56952 2.26188
C -3.36658 -6.02376 2.66595
C -3.36795 -7.06811 1.5376
C -3.08802 -6.55426 0.14271
O -2.23112 -7.40126 -0.50052
C -1.82692 -6.92282 -1.78775
C -0.8396 -7.89578 -2.4239
O -1.54986 -8.89074 -3.17787
C -1.65215 -10.10715 -2.5871
C -2.59701 -11.03575 -3.31208
C -3.96321 -11.22546 -2.63694
C -4.31653 -10.21434 -1.56479
O -5.07314 -10.41263 -0.62523
O -2.20901 -4.24092 1.46759
O -4.2291 -8.92526 -1.98859
O -1.17863 -10.38629 -1.4924
C -5.22135 -7.99047 -1.75196
C -3.0568 -10.5817 -4.72184
C -3.49307 -11.79826 -5.53929
C -4.78898 -12.15814 -4.84223
C -4.8928 -10.99959 -3.84507
O -4.27869 -9.92185 -4.50939
H -2.04092 -11.99127 -3.44225
H -4.08357 -12.23539 -2.18653
H -2.2822 -10.01593 -5.28363
H -3.73261 -11.43179 -6.56352
H -2.74905 -12.62035 -5.61266
H -5.6135 -12.11214 -5.58793
H -4.79452 -13.14278 -4.3264
H -5.94971 -10.84251 -3.53507
O -3.72609 -5.66136 -0.40282
C -1.91555 -2.96082 1.04707
C -2.13083 -6.48451 3.46911
C -2.51439 -7.64913 4.37651
C -2.72733 -8.74067 3.35109
C -2.2677 -8.01854 2.07638
O -1.29504 -7.10984 2.52537
H -4.26161 -6.10668 3.32421
H -4.36071 -7.56428 1.47964
H -1.72055 -2.30503 1.92233
H -1.66623 -5.67065 4.06846
H -1.60914 -7.89596 4.97694
H -3.36898 -7.47062 5.06398
H -2.05353 -9.59017 3.60121
H -3.77413 -9.10117 3.25125
H -1.92762 -8.78255 1.34524
H -2.75909 -2.55236 0.45054
H -1.00752 -2.98714 0.41049
H -4.95 -7.02708 -2.22462
H -5.38218 -7.84662 -0.66476
H -6.17339 -8.33191 -2.21168
H -0.25359 -7.32972 -3.17923
H -0.09303 -8.27536 -1.69016
H -1.27221 -5.97138 -1.61709
H -2.66868 -6.71276 -2.48148
$end

$opt
CONSTRAINT
tors           1           2           3           4    +134.469
tors           3           4           5           6    +136.914
tors           4           5           6           7    -174.956
tors           5           6           7           8    +178.186
tors           6           7           8           9     +88.926
tors           7           8           9          10    -103.293
tors           8           9          10          11    +170.395
tors           9          10          11          12    -104.223
tors          11          12          13          14    -153.414
ENDCONSTRAINT
$end

$rem
JOBTYPE                   OPT
METHOD                    B3LYP
DFT_D                     d3_op
BASIS                     STO-3G
GEOM_OPT_MAX_CYCLES       100
GEOM_OPT_TOL_GRADIENT     300
GEOM_OPT_TOL_DISPLACEMENT 1200
GEOM_OPT_TOL_ENERGY       100
SYMMETRY                  False
THRESH                    12
SCF_CONVERGENCE           8
MAX_SUB_FILE_NUM          128
MEM_STATIC                400
MEM_TOTAL                 4000
$end
--------------------------------------------------------------

   16   -1510.1441904981      2.14E-09 Convergence criterion met
 Total energy in the final basis set = -1510.14419050
   14   -1510.2126765804      5.83E-09 Convergence criterion met
 Total energy in the final basis set = -1510.21267658
   14   -1510.2438497375      3.52E-09 Convergence criterion met
 Total energy in the final basis set = -1510.24384974
   15   -1510.2614521706      2.81E-09 Convergence criterion met
 Total energy in the final basis set = -1510.26145217
   13   -1510.2693741104      9.12E-09 Convergence criterion met
 Total energy in the final basis set = -1510.26937411
   13   -1510.2739918410      9.13E-09 Convergence criterion met
 Total energy in the final basis set = -1510.27399184
   12   -1510.2758865871      8.83E-09 Convergence criterion met
 Total energy in the final basis set = -1510.27588659
   12   -1510.2769431472      7.40E-09 Convergence criterion met
   11   -1510.2785645763      8.03E-09 Convergence criterion met
 Total energy in the final basis set = -1510.27856458
   11   -1510.2785991290      4.50E-09 Convergence criterion met
 Total energy in the final basis set = -1510.27859913
   11   -1510.2786348767      4.70E-09 Convergence criterion met
 Total energy in the final basis set = -1510.27863488
   10   -1510.2786551931      9.49E-09 Convergence criterion met
 Total energy in the final basis set = -1510.27865519
   10   -1510.2786628772      5.96E-09 Convergence criterion met
 Total energy in the final basis set = -1510.27866288
    9   -1510.2786642942      8.12E-09 Convergence criterion met
 Total energy in the final basis set = -1510.27866429

             Standard Nuclear Orientation (Angstroms)
    I     Atom           X                Y                Z
 ----------------------------------------------------------------
    1      O      -5.4990085969    -1.3030913719     1.3561541528
    2      C      -4.6379929375    -0.7875489484     0.6116673495
    3      C      -4.0421490885     0.6578553117     0.7072428303
    4      C      -2.4645550634     0.7129515863     0.5613323975
    5      C      -1.7965840016    -0.7120455415     0.5595337489
    6      O      -0.7957409469    -0.7540075457    -0.4557255317
    7      C      -0.2186880991    -2.1139272104    -0.5795649877
    8      C       0.8193100006    -2.0336182449    -1.7455380818
    9      O       2.1729632721    -1.6456920903    -1.2831651341
   10      C       2.4235000779    -0.2700228314    -1.6025482583
   11      C       3.7389900672     0.2377687327    -0.9175343673
   12      C       3.5936751867     1.1722234080     0.3559332360
   13      C       2.2651417381     1.1315047733     1.1835664688
   14      O       1.8129877274     2.0727360850     1.8737779596
   15      O      -4.0949954469    -1.4235143016    -0.5544371696
   16      O       1.7536444637    -0.2048840482     1.2334708630
   17      O       1.6736286638     0.4243062823    -2.3260559932
   18      C       0.7881160269    -0.3085237143     2.3539209867
   19      C       4.7214463762    -0.8919859166    -0.3740140047
   20      C       6.1881484756    -0.3186512006    -0.4738111462
   21      C       6.1469519582     0.7770407072     0.6558301109
   22      C       4.7190539032     0.5220282681     1.2851552694
   23      O       4.4850793762    -0.9244671779     1.0874319036
   24      H       4.2561463896     0.8261817126    -1.6985047450
   25      H       3.8113079782     2.2264555088     0.1103476453
   26      H       4.5590062641    -1.8932533360    -0.8162250206
   27      H       6.9235947078    -1.1056284121    -0.2415853619
   28      H       6.4147191752     0.0972915952    -1.4684333284
   29      H       6.9347006419     0.6167099478     1.4086203902
   30      H       6.2424581328     1.8002126001     0.2582924508
   31      H       4.6270566341     0.7886013011     2.3561906363
   32      O      -2.0487842718    -1.6621029697     1.3339007152
   33      C      -4.5862124064    -2.8156970134    -0.6491276560
   34      C      -4.4728484346     1.5206293057    -0.5596237588
   35      C      -4.1253589605     3.0376054759    -0.2821522178
   36      C      -2.5661947599     3.0398841875    -0.4991471178
   37      C      -2.3027568257     1.5130729768    -0.8000531554
   38      O      -3.4911332279     1.1128296212    -1.5886034910
   39      H      -4.3876732682     1.1079719542     1.6537854459
   40      H      -2.0258487309     1.2835657332     1.4015355099
   41      H      -5.6935038872    -2.8639460089    -0.6175000596
   42      H      -5.5057155066     1.3313383741    -0.9112064815
   43      H      -4.6379959992     3.6892739862    -1.0073136428
   44      H      -4.4123916540     3.3470831896     0.7356940993
   45      H      -2.2804286928     3.6559397342    -1.3665699695
   46      H      -2.0112041076     3.3936688664     0.3842970956
   47      H      -1.3705028043     1.2788109079    -1.3489681947
   48      H      -4.1810816861    -3.4398157856     0.1741738166
   49      H      -4.2240603118    -3.2030047761    -1.6192738001
   50      H       0.3399726036    -1.3163949252     2.2959409578
   51      H      -0.0087759191     0.4577596047     2.2857049307
   52      H       1.3024861942    -0.1905277529     3.3295008514
   53      H       0.9199133047    -3.0330639073    -2.2171964713
   54      H       0.4685067572    -1.2928995848    -2.4976848154
   55      H      -1.0154454545    -2.8483220807    -0.8301305897
   56      H       0.2744513380    -2.4388610567     0.3617996562
 ----------------------------------------------------------------

    9   -1510.2786639717      2.86E-09 Convergence criterion met
 Total energy in the final basis set = -1510.27866397
 Final energy is   -1510.27866397169
 **  OPTIMIZATION CONVERGED  **

                    Orbital Energies (a.u.)
 --------------------------------------------------------------

 Alpha MOs
 -- Occupied --
-18.935 -18.935 -18.935 -18.928 -18.891 -18.884 -18.877 -18.872
-18.870 -18.869 -10.103 -10.101 -10.099 -10.094 -10.076 -10.071
-10.064 -10.061 -10.060 -10.059 -10.058 -10.053 -10.042 -10.040
-10.035 -10.034 -10.023 -10.021 -10.017 -10.015  -1.017  -1.012
 -1.009  -1.003  -0.973  -0.966  -0.940  -0.934  -0.934  -0.930
 -0.765  -0.760  -0.728  -0.722  -0.716  -0.705  -0.694  -0.661
 -0.656  -0.616  -0.598  -0.580  -0.546  -0.542  -0.539  -0.534
 -0.517  -0.514  -0.488  -0.480  -0.472  -0.465  -0.439  -0.436
 -0.434  -0.430  -0.422  -0.415  -0.412  -0.409  -0.408  -0.404
 -0.395  -0.376  -0.373  -0.366  -0.362  -0.358  -0.352  -0.350
 -0.344  -0.340  -0.337  -0.333  -0.327  -0.324  -0.319  -0.311
 -0.309  -0.306  -0.303  -0.300  -0.294  -0.289  -0.287  -0.275
 -0.272  -0.255  -0.252  -0.247  -0.245  -0.236  -0.230  -0.180
 -0.177  -0.175  -0.169  -0.160  -0.154  -0.151  -0.146  -0.145
 -0.139

          Ground-State Mulliken Net Atomic Charges

     Atom                 Charge (a.u.)
  ----------------------------------------
      1 O                    -0.212524
      2 C                     0.211452
      3 C                    -0.079562
      4 C                    -0.078477
      5 C                     0.215132
      6 O                    -0.170509
      7 C                    -0.045155
      8 C                    -0.052633
      9 O                    -0.167474
     10 C                     0.212188
     11 C                    -0.079324
     12 C                    -0.076696
     13 C                     0.206585
     14 O                    -0.216941
     15 O                    -0.169155
     16 O                    -0.164917
     17 O                    -0.213729
     18 C                    -0.129405
     19 C                     0.025385
     20 C                    -0.142754
     21 C                    -0.144941
     22 C                     0.025658
     23 O                    -0.186324
     24 H                     0.083972
     25 H                     0.087080
     26 H                     0.090526
     27 H                     0.078031
     28 H                     0.073582
     29 H                     0.078756
     30 H                     0.074583
     31 H                     0.082397
     32 O                    -0.223966
     33 C                    -0.128867
     34 C                     0.025910
     35 C                    -0.144376
     36 C                    -0.143757
     37 C                     0.023256
     38 O                    -0.187088
     39 H                     0.085115
     40 H                     0.082044
     41 H                     0.090227
     42 H                     0.081855
     43 H                     0.077561
     44 H                     0.073515
     45 H                     0.078500
     46 H                     0.074437
     47 H                     0.097337
     48 H                     0.089518
     49 H                     0.088161
     50 H                     0.093756
     51 H                     0.088116
     52 H                     0.086509
     53 H                     0.085929
     54 H                     0.107428
     55 H                     0.089097
     56 H                     0.094975
  ----------------------------------------
  Sum of atomic charges =    -0.000000

                    Cartesian Multipole Moments
 -----------------------------------------------------------------
    Charge (ESU x 10^10)
                -0.0000
    Dipole Moment (Debye)
         X       2.1750      Y       0.1221      Z      -0.8546
       Tot       2.3401
    Quadrupole Moments (Debye-Ang)
        XX    -152.6737     XY      -1.3081     YY    -155.1563
        XZ       1.2248     YZ       7.2525     ZZ    -164.5361

 Total job time:  57.42s(wall), 2732.28s(cpu)
        *  Thank you very much for using Q-Chem.  Have a nice day.  *
