 Q-Chem 5.0, Q-Chem, Inc., Pleasanton, CA (2017)
 Q-Chem 5.0.1 for Intel X86 EM64T Linux

User input:
--------------------------------------------------------------
$molecule
0  1
O 4.377655737 -2.9325967509 -0.3036751159
C 4.114709366 -1.778708234 0.0991682356
C 4.2071238373 -0.4514637266 -0.7348374921
C 2.9607672211 0.5093537057 -0.5764330666
C 1.7216208214 -0.1772294016 0.0938850971
O 0.8822898105 0.8263342656 0.638557745
C -0.2926414973 0.2603188359 1.3533399278
C -1.0964243808 1.506889647 1.8818512094
O -2.4788021421 1.5997483623 1.3638942861
C -2.4963838444 1.672041864 -0.067528547
C -3.9277123228 1.2846481818 -0.5916978983
C -3.9899987018 -0.1795466939 -1.2118509883
C -2.6262098616 -0.8919991073 -1.5120994625
O -2.0734595143 -0.9481174611 -2.6329507289
O 3.8351259929 -1.4497982692 1.4670619882
O -2.1081287096 -1.530063152 -0.3328665687
O -1.4946821612 1.9350141058 -0.7685381736
C -1.047597456 -2.5111654375 -0.6991847634
C -4.9675539406 1.1306756564 0.594302736
C -6.4241690747 0.9720987813 -0.0008742319
C -6.4078024857 -0.5304891816 -0.4680241229
C -4.912641194 -0.9218363593 -0.1480950059
O -4.6480276682 -0.2163952988 1.1251077072
H -4.2406060039 2.0323216654 -1.3430620743
H -4.5039330436 -0.1247052479 -2.1883710035
H -4.8655234367 1.8932743905 1.3892402558
H -7.1808691598 1.1461091221 0.7801869476
H -6.6084775986 1.6729910907 -0.8309007117
H -7.0993826144 -1.1449206259 0.1306678553
H -6.6580013695 -0.6521532572 -1.5339735943
H -4.7124668681 -2.0052283089 -0.0415049216
O 1.4941905324 -1.4117222405 0.1318770632
C 3.7184301734 -2.6894753291 2.2652730032
C 5.3484223481 0.4849783925 -0.138610618
C 5.5995575467 1.6898619819 -1.1325796175
C 4.3712119975 2.6208623685 -0.8083127474
C 3.5899415732 1.7255459326 0.2300442051
O 4.679412256 1.1133854901 1.0230463061
H 4.3923451318 -0.7217133527 -1.7887015274
H 2.6243680919 0.8592795454 -1.5711761348
H 4.6105661952 -3.3378985119 2.1499110197
H 6.2596801676 -0.0547241327 0.184508648
H 6.5568083961 2.185443112 -0.9062039746
H 5.6136200315 1.3581191369 -2.1831846415
H 4.694210106 3.5619637517 -0.3352895051
H 3.7662426847 2.8597328348 -1.6976740821
H 2.8721525849 2.2558487385 0.8849771107
H 2.819421134 -3.2704939345 1.9723775963
H 3.6232166761 -2.3684615114 3.3188180234
H -1.3200741492 -3.4786324567 -0.2364636204
H -0.0619068522 -2.1597133392 -0.3086059622
H -0.9977726729 -2.6094494418 -1.800282528
H -1.2188377215 1.4558862341 2.9818249439
H -0.5128524469 2.4211778317 1.6293112268
H 0.0510556525 -0.374611085 2.1974786941
H -0.9482044009 -0.3599603075 0.6886711116
$end

$rem
JOBTYPE                   OPT
METHOD                    B3LYP
DFT_D                     d3_op
BASIS                     STO-3G
GEOM_OPT_MAX_CYCLES       100
GEOM_OPT_TOL_GRADIENT     300
GEOM_OPT_TOL_DISPLACEMENT 1200
GEOM_OPT_TOL_ENERGY       100
SYMMETRY                  False
THRESH                    12
SCF_CONVERGENCE           8
MAX_SUB_FILE_NUM          128
MEM_STATIC                400
MEM_TOTAL                 4000
$end
--------------------------------------------------------------

   16   -1510.2830380433      5.93E-09 Convergence criterion met
 Total energy in the final basis set = -1510.28303804
   15   -1510.2783361404      2.48E-09 Convergence criterion met
 Total energy in the final basis set = -1510.27833614
   14   -1510.2820284655      8.52E-09 Convergence criterion met
 Total energy in the final basis set = -1510.28202847
   15   -1510.2635793153      3.45E-09 Convergence criterion met
 Total energy in the final basis set = -1510.26357932
   14   -1510.2812493707      8.43E-09 Convergence criterion met
 Total energy in the final basis set = -1510.28124937
   15   -1510.2813228548      3.65E-09 Convergence criterion met
 Total energy in the final basis set = -1510.28132285
   13   -1510.2835515399      7.83E-09 Convergence criterion met
 Total energy in the final basis set = -1510.28355154
   14   -1510.2841720484      7.41E-09 Convergence criterion met
   11   -1510.2922948283      8.60E-09 Convergence criterion met
 Total energy in the final basis set = -1510.29229483
   11   -1510.2923333565      3.22E-09 Convergence criterion met
 Total energy in the final basis set = -1510.29233336
   11   -1510.2923442681      9.08E-09 Convergence criterion met
 Total energy in the final basis set = -1510.29234427
   11   -1510.2923585962      5.76E-09 Convergence criterion met
 Total energy in the final basis set = -1510.29235860
   11   -1510.2923509881      3.27E-09 Convergence criterion met
 Total energy in the final basis set = -1510.29235099
    9   -1510.2923568307      1.00E-08 Convergence criterion met
 Total energy in the final basis set = -1510.29235683

             Standard Nuclear Orientation (Angstroms)
    I     Atom           X                Y                Z
 ----------------------------------------------------------------
    1      O       2.8767164293    -2.9823421170    -0.2463141519
    2      C       3.1887775845    -1.8090255288     0.0523569695
    3      C       3.0868126026    -0.5456232395    -0.8686883234
    4      C       2.1211764810     0.5777682819    -0.3036302624
    5      C       1.3622444126     0.1587680496     1.0000701242
    6      O       1.1696204946     1.2920284176     1.8464658994
    7      C       0.1484954001     0.9973520931     2.8792213998
    8      C      -1.0619505983     1.9964497169     2.7070932744
    9      O      -2.2754484774     1.4603103012     2.0401289765
   10      C      -2.0460116734     1.1456144582     0.6649237661
   11      C      -3.4243112451     0.9119335896    -0.0439321525
   12      C      -3.3043535516     0.1322049110    -1.4198703243
   13      C      -1.8545109926    -0.3865723563    -1.7527432393
   14      O      -1.0791661284     0.0600001923    -2.6287028536
   15      O       3.7414616467    -1.4174946563     1.3150074951
   16      O      -1.6075701205    -1.5378354872    -0.9487590701
   17      O      -0.9212625490     1.1164186131     0.1189828736
   18      C      -0.2522190314    -2.0862136187    -1.1977301256
   19      C      -4.4235784339    -0.0246388722     0.7627385299
   20      C      -5.8792740859     0.2229103028     0.2020355129
   21      C      -5.7902355699    -0.5022594187    -1.1921885080
   22      C      -4.3129826864    -1.0658375737    -1.1531904447
   23      O      -4.0983731746    -1.3831260123     0.2780735038
   24      H      -3.8757755248     1.9100759200    -0.1994956447
   25      H      -3.6314671005     0.7689564573    -2.2604973112
   26      H      -4.3154733707     0.0394401455     1.8627052961
   27      H      -6.6267479616    -0.2520832223     0.8572247078
   28      H      -6.1174251013     1.2947709584     0.1125753619
   29      H      -6.5170548641    -1.3265141759    -1.2671821809
   30      H      -5.9469716279     0.1854537076    -2.0384987963
   31      H      -4.1339543783    -1.9622580572    -1.7773858798
   32      O       0.9313252301    -0.9895280784     1.2699418516
   33      C       3.7502953151    -2.5759849233     2.2355717053
   34      C       4.4530653311     0.2638441152    -0.9431014754
   35      C       4.3606978269     1.2777076408    -2.1527283836
   36      C       3.4238593285     2.3894672853    -1.5501599048
   37      C       3.1263759635     1.7900725505    -0.1202166355
   38      O       4.4010256586     1.1351650349     0.2523468331
   39      H       2.7598048080    -0.8882829478    -1.8657894869
   40      H       1.3335666518     0.8241873644    -1.0419554103
   41      H       4.3078671151    -3.4353122037     1.8106802063
   42      H       5.3629411972    -0.3666205867    -0.9244715485
   43      H       5.3573856673     1.6768319400    -2.3992232167
   44      H       3.9348877654     0.8072896126    -3.0534828777
   45      H       3.9475944366     3.3546799689    -1.4618999591
   46      H       2.5030678554     2.5366676692    -2.1370548582
   47      H       2.8176767185     2.5188405471     0.6533913866
   48      H       2.7173000498    -2.9065298542     2.4701427018
   49      H       4.2475518777    -2.2292741571     3.1599178668
   50      H      -0.3478066417    -3.1755032903    -1.3651356580
   51      H       0.3697253048    -1.8879587529    -0.2951104822
   52      H       0.1915795303    -1.5990911096    -2.0881956039
   53      H      -1.4243484744     2.3075407158     3.7076878564
   54      H      -0.6899183249     2.8950297380     2.1663119617
   55      H       0.6124343289     1.1554693412     3.8752805923
   56      H      -0.1697140917    -0.0647015301     2.7849214197
 ----------------------------------------------------------------

    9   -1510.2923564739      7.35E-09 Convergence criterion met
 Total energy in the final basis set = -1510.29235647
 Final energy is   -1510.29235647388
 **  OPTIMIZATION CONVERGED  **

                    Orbital Energies (a.u.)
 --------------------------------------------------------------

 Alpha MOs
 -- Occupied --
-18.946 -18.940 -18.924 -18.913 -18.889 -18.886 -18.883 -18.882
-18.864 -18.853 -10.113 -10.109 -10.090 -10.085 -10.084 -10.076
-10.059 -10.056 -10.056 -10.055 -10.054 -10.041 -10.034 -10.031
-10.030 -10.025 -10.019 -10.018 -10.015 -10.014  -1.026  -1.015
 -1.000  -0.992  -0.967  -0.965  -0.950  -0.942  -0.926  -0.917
 -0.762  -0.759  -0.728  -0.719  -0.714  -0.704  -0.695  -0.652
 -0.640  -0.621  -0.594  -0.580  -0.544  -0.542  -0.535  -0.533
 -0.513  -0.510  -0.486  -0.472  -0.466  -0.459  -0.448  -0.436
 -0.432  -0.428  -0.425  -0.408  -0.406  -0.404  -0.402  -0.400
 -0.390  -0.387  -0.378  -0.364  -0.359  -0.355  -0.346  -0.342
 -0.337  -0.335  -0.332  -0.327  -0.326  -0.320  -0.316  -0.314
 -0.306  -0.304  -0.300  -0.296  -0.294  -0.286  -0.282  -0.271
 -0.271  -0.262  -0.253  -0.243  -0.232  -0.230  -0.228  -0.194
 -0.178  -0.168  -0.166  -0.161  -0.148  -0.142  -0.141  -0.139
 -0.139

          Ground-State Mulliken Net Atomic Charges

     Atom                 Charge (a.u.)
  ----------------------------------------
      1 O                    -0.215006
      2 C                     0.209554
      3 C                    -0.080877
      4 C                    -0.078364
      5 C                     0.233971
      6 O                    -0.168706
      7 C                    -0.055127
      8 C                    -0.049454
      9 O                    -0.170883
     10 C                     0.217423
     11 C                    -0.078005
     12 C                    -0.080294
     13 C                     0.210714
     14 O                    -0.227334
     15 O                    -0.169681
     16 O                    -0.172755
     17 O                    -0.212843
     18 C                    -0.148768
     19 C                     0.024675
     20 C                    -0.143552
     21 C                    -0.144892
     22 C                     0.027460
     23 O                    -0.184644
     24 H                     0.084722
     25 H                     0.081776
     26 H                     0.088485
     27 H                     0.077791
     28 H                     0.072156
     29 H                     0.077648
     30 H                     0.072894
     31 H                     0.085906
     32 O                    -0.217787
     33 C                    -0.128633
     34 C                     0.026097
     35 C                    -0.144107
     36 C                    -0.143690
     37 C                     0.024248
     38 O                    -0.187767
     39 H                     0.085806
     40 H                     0.102315
     41 H                     0.088163
     42 H                     0.082443
     43 H                     0.076666
     44 H                     0.074956
     45 H                     0.076292
     46 H                     0.076525
     47 H                     0.090089
     48 H                     0.090334
     49 H                     0.088350
     50 H                     0.080920
     51 H                     0.105560
     52 H                     0.087169
     53 H                     0.092475
     54 H                     0.092819
     55 H                     0.088590
     56 H                     0.108177
  ----------------------------------------
  Sum of atomic charges =    -0.000000

                    Cartesian Multipole Moments
 -----------------------------------------------------------------
    Charge (ESU x 10^10)
                -0.0000
    Dipole Moment (Debye)
         X      -1.6375      Y       2.6754      Z       1.0637
       Tot       3.3122
    Quadrupole Moments (Debye-Ang)
        XX    -150.6260     XY      -6.2725     YY    -161.0322
        XZ      -0.5753     YZ       1.5584     ZZ    -152.4422

 Total job time:  126.91s(wall), 6053.69s(cpu)
        *  Thank you very much for using Q-Chem.  Have a nice day.  *
