 Q-Chem 5.0, Q-Chem, Inc., Pleasanton, CA (2017)
 Q-Chem 5.0.1 for Intel X86 EM64T Linux

User input:
--------------------------------------------------------------
$molecule
0  1
O -3.94934 -3.66094 2.70899
C -3.26408 -4.56952 2.26188
C -3.36658 -6.02376 2.66595
C -3.36795 -7.06811 1.5376
C -3.08802 -6.55426 0.14271
O -2.6499 -7.57708 -0.64933
C -2.30503 -7.15602 -1.97335
C -1.82645 -8.34781 -2.79599
O -2.67714 -8.52652 -3.93934
C -3.98798 -8.73807 -3.66347
C -4.8889 -8.46826 -4.84507
C -5.67345 -7.15008 -4.77322
C -5.19063 -6.14909 -3.74287
O -5.67735 -5.98278 -2.63381
O -2.19782 -4.23572 1.4837
O -4.29592 -5.21652 -4.18196
O -4.42796 -8.988 -2.54769
C -3.93163 -4.07307 -3.49988
C -4.18524 -8.29408 -6.21557
C -5.16058 -8.63731 -7.34106
C -6.11066 -7.46182 -7.25856
C -5.40175 -6.61377 -6.19618
O -4.03748 -6.90654 -6.37342
H -5.54695 -9.36228 -4.93016
H -6.76048 -7.30186 -4.59278
H -3.26259 -8.90372 -6.32841
H -4.58885 -8.5652 -8.29441
H -5.63866 -9.63858 -7.28018
H -6.11665 -6.94593 -8.24434
H -7.14925 -7.71024 -6.94996
H -5.69133 -5.5449 -6.3031
O -3.65518 -5.57062 -0.31622
C -1.90501 -2.95447 1.06563
C -2.12198 -6.45755 3.46409
C -2.45776 -7.66284 4.33826
C -2.58583 -8.74068 3.28597
C -2.19174 -7.95186 2.03124
O -1.26293 -7.00781 2.49917
H -4.26052 -6.11136 3.32422
H -4.31959 -7.64204 1.48587
H -1.72807 -2.2957 1.94251
H -1.696 -5.64081 4.08808
H -1.55883 -7.87802 4.95963
H -3.34072 -7.53767 5.00128
H -1.83296 -9.53113 3.50295
H -3.59568 -9.19473 3.18857
H -1.80942 -8.66469 1.27021
H -2.74125 -2.55234 0.45445
H -0.98686 -2.97649 0.44361
H -3.20013 -3.50572 -4.11073
H -3.45809 -4.32265 -2.53117
H -4.82295 -3.4335 -3.32615
H -0.79891 -8.15202 -3.17067
H -1.78163 -9.27706 -2.18464
H -1.46295 -6.43012 -1.90012
H -3.12085 -6.62622 -2.46671
$end

$opt
CONSTRAINT
tors           1           2           3           4    +134.469
tors           3           4           5           6    +158.357
tors           4           5           6           7    -177.329
tors           5           6           7           8    -180.000
tors           6           7           8           9    +119.871
tors           7           8           9          10     -58.963
tors           8           9          10          11    +161.053
tors           9          10          11          12    -104.223
tors          11          12          13          14     -98.613
ENDCONSTRAINT
$end

$rem
JOBTYPE                   OPT
METHOD                    B3LYP
DFT_D                     d3_op
BASIS                     STO-3G
GEOM_OPT_MAX_CYCLES       100
GEOM_OPT_TOL_GRADIENT     300
GEOM_OPT_TOL_DISPLACEMENT 1200
GEOM_OPT_TOL_ENERGY       100
SYMMETRY                  False
THRESH                    12
SCF_CONVERGENCE           8
MAX_SUB_FILE_NUM          128
MEM_STATIC                400
MEM_TOTAL                 4000
$end
--------------------------------------------------------------

   15   -1510.1387780108      6.89E-09 Convergence criterion met
 Total energy in the final basis set = -1510.13877801
   14   -1510.2094629802      5.69E-09 Convergence criterion met
 Total energy in the final basis set = -1510.20946298
   14   -1510.2483553511      8.33E-09 Convergence criterion met
 Total energy in the final basis set = -1510.24835535
   14   -1510.2650160718      8.18E-09 Convergence criterion met
 Total energy in the final basis set = -1510.26501607
   14   -1510.2648737148      9.93E-09 Convergence criterion met
 Total energy in the final basis set = -1510.26487371
   15   -1510.2666601622      2.48E-09 Convergence criterion met
 Total energy in the final basis set = -1510.26666016
   14   -1510.2715255630      8.58E-09 Convergence criterion met
 Total energy in the final basis set = -1510.27152556
   13   -1510.2752880203      6.37E-09 Convergence criterion met
   11   -1510.2830321267      5.36E-09 Convergence criterion met
 Total energy in the final basis set = -1510.28303213
   11   -1510.2830455916      4.72E-09 Convergence criterion met
 Total energy in the final basis set = -1510.28304559
   11   -1510.2830419352      4.89E-09 Convergence criterion met
 Total energy in the final basis set = -1510.28304194
   10   -1510.2830465674      8.53E-09 Convergence criterion met
 Total energy in the final basis set = -1510.28304657
    9   -1510.2830489563      4.53E-09 Convergence criterion met
 Total energy in the final basis set = -1510.28304896
    9   -1510.2830505281      6.24E-09 Convergence criterion met
 Total energy in the final basis set = -1510.28305053

             Standard Nuclear Orientation (Angstroms)
    I     Atom           X                Y                Z
 ----------------------------------------------------------------
    1      O       4.3776557370    -2.9325967509    -0.3036751159
    2      C       4.1147093660    -1.7787082340     0.0991682356
    3      C       4.2071238373    -0.4514637266    -0.7348374921
    4      C       2.9607672211     0.5093537057    -0.5764330666
    5      C       1.7216208214    -0.1772294016     0.0938850971
    6      O       0.8822898105     0.8263342656     0.6385577450
    7      C      -0.2926414973     0.2603188359     1.3533399278
    8      C      -1.0964243808     1.5068896470     1.8818512094
    9      O      -2.4788021421     1.5997483623     1.3638942861
   10      C      -2.4963838444     1.6720418640    -0.0675285470
   11      C      -3.9277123228     1.2846481818    -0.5916978983
   12      C      -3.9899987018    -0.1795466939    -1.2118509883
   13      C      -2.6262098616    -0.8919991073    -1.5120994625
   14      O      -2.0734595143    -0.9481174611    -2.6329507289
   15      O       3.8351259929    -1.4497982692     1.4670619882
   16      O      -2.1081287096    -1.5300631520    -0.3328665687
   17      O      -1.4946821612     1.9350141058    -0.7685381736
   18      C      -1.0475974560    -2.5111654375    -0.6991847634
   19      C      -4.9675539406     1.1306756564     0.5943027360
   20      C      -6.4241690747     0.9720987813    -0.0008742319
   21      C      -6.4078024857    -0.5304891816    -0.4680241229
   22      C      -4.9126411940    -0.9218363593    -0.1480950059
   23      O      -4.6480276682    -0.2163952988     1.1251077072
   24      H      -4.2406060039     2.0323216654    -1.3430620743
   25      H      -4.5039330436    -0.1247052479    -2.1883710035
   26      H      -4.8655234367     1.8932743905     1.3892402558
   27      H      -7.1808691598     1.1461091221     0.7801869476
   28      H      -6.6084775986     1.6729910907    -0.8309007117
   29      H      -7.0993826144    -1.1449206259     0.1306678553
   30      H      -6.6580013695    -0.6521532572    -1.5339735943
   31      H      -4.7124668681    -2.0052283089    -0.0415049216
   32      O       1.4941905324    -1.4117222405     0.1318770632
   33      C       3.7184301734    -2.6894753291     2.2652730032
   34      C       5.3484223481     0.4849783925    -0.1386106180
   35      C       5.5995575467     1.6898619819    -1.1325796175
   36      C       4.3712119975     2.6208623685    -0.8083127474
   37      C       3.5899415732     1.7255459326     0.2300442051
   38      O       4.6794122560     1.1133854901     1.0230463061
   39      H       4.3923451318    -0.7217133527    -1.7887015274
   40      H       2.6243680919     0.8592795454    -1.5711761348
   41      H       4.6105661952    -3.3378985119     2.1499110197
   42      H       6.2596801676    -0.0547241327     0.1845086480
   43      H       6.5568083961     2.1854431120    -0.9062039746
   44      H       5.6136200315     1.3581191369    -2.1831846415
   45      H       4.6942101060     3.5619637517    -0.3352895051
   46      H       3.7662426847     2.8597328348    -1.6976740821
   47      H       2.8721525849     2.2558487385     0.8849771107
   48      H       2.8194211340    -3.2704939345     1.9723775963
   49      H       3.6232166761    -2.3684615114     3.3188180234
   50      H      -1.3200741492    -3.4786324567    -0.2364636204
   51      H      -0.0619068522    -2.1597133392    -0.3086059622
   52      H      -0.9977726729    -2.6094494418    -1.8002825280
   53      H      -1.2188377215     1.4558862341     2.9818249439
   54      H      -0.5128524469     2.4211778317     1.6293112268
   55      H       0.0510556525    -0.3746110850     2.1974786941
   56      H      -0.9482044009    -0.3599603075     0.6886711116
 ----------------------------------------------------------------

    9   -1510.2830506561      2.37E-09 Convergence criterion met
 Total energy in the final basis set = -1510.28305066
 Final energy is   -1510.28305065614
 **  OPTIMIZATION CONVERGED  **

                    Orbital Energies (a.u.)
 --------------------------------------------------------------

 Alpha MOs
 -- Occupied --
-18.945 -18.935 -18.933 -18.922 -18.888 -18.887 -18.885 -18.880
-18.879 -18.862 -10.111 -10.102 -10.101 -10.090 -10.075 -10.067
-10.061 -10.060 -10.059 -10.058 -10.055 -10.041 -10.039 -10.038
-10.035 -10.033 -10.021 -10.020 -10.019 -10.018  -1.022  -1.013
 -1.009  -1.000  -0.970  -0.969  -0.946  -0.939  -0.936  -0.925
 -0.765  -0.762  -0.728  -0.721  -0.715  -0.706  -0.694  -0.653
 -0.650  -0.618  -0.598  -0.581  -0.546  -0.545  -0.538  -0.536
 -0.518  -0.512  -0.488  -0.474  -0.468  -0.462  -0.446  -0.438
 -0.433  -0.431  -0.428  -0.417  -0.409  -0.406  -0.404  -0.401
 -0.389  -0.381  -0.371  -0.368  -0.362  -0.355  -0.349  -0.347
 -0.342  -0.339  -0.335  -0.332  -0.329  -0.323  -0.320  -0.313
 -0.308  -0.307  -0.304  -0.299  -0.298  -0.290  -0.285  -0.277
 -0.270  -0.259  -0.254  -0.246  -0.242  -0.234  -0.233  -0.185
 -0.178  -0.175  -0.165  -0.161  -0.159  -0.151  -0.143  -0.143
 -0.141

          Ground-State Mulliken Net Atomic Charges

     Atom                 Charge (a.u.)
  ----------------------------------------
      1 O                    -0.216938
      2 C                     0.212454
      3 C                    -0.079487
      4 C                    -0.077905
      5 C                     0.225835
      6 O                    -0.165201
      7 C                    -0.059383
      8 C                    -0.046891
      9 O                    -0.169288
     10 C                     0.206343
     11 C                    -0.077288
     12 C                    -0.080598
     13 C                     0.207336
     14 O                    -0.206511
     15 O                    -0.169986
     16 O                    -0.176014
     17 O                    -0.209108
     18 C                    -0.156769
     19 C                     0.025700
     20 C                    -0.145510
     21 C                    -0.143080
     22 C                     0.025352
     23 O                    -0.186394
     24 H                     0.085603
     25 H                     0.086022
     26 H                     0.089211
     27 H                     0.077964
     28 H                     0.073118
     29 H                     0.077925
     30 H                     0.073551
     31 H                     0.085884
     32 O                    -0.217117
     33 C                    -0.128254
     34 C                     0.026017
     35 C                    -0.144773
     36 C                    -0.142686
     37 C                     0.025472
     38 O                    -0.186488
     39 H                     0.085498
     40 H                     0.088666
     41 H                     0.088754
     42 H                     0.082747
     43 H                     0.077751
     44 H                     0.074219
     45 H                     0.077709
     46 H                     0.074820
     47 H                     0.089665
     48 H                     0.088377
     49 H                     0.087637
     50 H                     0.079196
     51 H                     0.111947
     52 H                     0.092545
     53 H                     0.092122
     54 H                     0.094039
     55 H                     0.086462
     56 H                     0.109732
  ----------------------------------------
  Sum of atomic charges =    -0.000000

                    Cartesian Multipole Moments
 -----------------------------------------------------------------
    Charge (ESU x 10^10)
                 0.0000
    Dipole Moment (Debye)
         X      -1.6888      Y       1.4898      Z       0.3416
       Tot       2.2778
    Quadrupole Moments (Debye-Ang)
        XX    -145.8935     XY       4.0492     YY    -160.1155
        XZ       1.2429     YZ      -3.6226     ZZ    -161.4226

 Total job time:  90.01s(wall), 4289.41s(cpu)
        *  Thank you very much for using Q-Chem.  Have a nice day.  *
