 Q-Chem 5.0, Q-Chem, Inc., Pleasanton, CA (2017)
 Q-Chem 5.0.1 for Intel X86 EM64T Linux

User input:
--------------------------------------------------------------
$molecule
0  1
O 4.2805247808 -2.4531474321 -1.2050614931
C 4.5205386767 -1.5958019479 -0.3273729801
C 4.7738927354 -0.0629931631 -0.5725375155
C 3.4890611506 0.7507403102 -1.0140904128
C 2.155984631 0.0442025681 -0.5618835398
O 1.1251656378 1.0273897215 -0.4630498949
C -0.1350434615 0.4105842262 0.0237772811
C -0.8584620979 1.4823261509 0.9145397444
O -2.3236418145 1.2658558176 1.0131340846
C -2.9955545754 1.7390353722 -0.1653576142
C -4.4070706222 1.061736384 -0.2928327686
C -4.4248291389 -0.4229835508 -0.8697797821
C -2.9962606605 -1.0331654168 -1.0767952919
O -2.1331373344 -0.6052853167 -1.8826896791
O 4.6038960601 -1.8810958567 1.0741893343
O -2.8210083632 -2.1821151585 -0.2533689252
O -2.5032834965 2.5575276978 -0.9727751652
C -1.5022163935 -2.818600659 -0.4907128277
C -5.1430728495 0.8446113144 1.1033410203
C -6.6921496028 0.7280216658 0.8223307687
C -6.767603926 -0.6965244844 0.1590592771
C -5.2600146819 -1.1632732917 0.2546514585
O -4.7665831288 -0.5304944689 1.4994602249
H -5.0047439494 1.7169572906 -0.9517366445
H -4.9356148066 -0.4419925073 -1.8503029716
H -4.855791165 1.5676489633 1.8907696285
H -7.2552041384 0.7609584602 1.7687669712
H -7.0622854897 1.5290139806 0.1628184846
H -7.4184960257 -1.376429452 0.7311707976
H -7.123016829 -0.6618765104 -0.8833285607
H -5.102115818 -2.2576190574 0.2865827768
O 2.003423531 -1.1579815408 -0.2474406619
C 4.2700750507 -3.3031161416 1.3122030904
C 5.2763756986 0.8016857889 0.6623705154
C 6.1066752714 2.0071002141 0.0721692445
C 4.9578256683 2.8519900774 -0.5956790851
C 3.6731921531 2.0565270289 -0.1323273639
O 4.0570224417 1.4704438772 1.1756839691
H 5.5183699332 -0.0108753529 -1.388611735
H 3.4629614464 0.9507633701 -2.1007081088
H 5.004900462 -3.9835907917 0.8346939642
H 5.7674466917 0.2181586689 1.4642326778
H 6.5972247673 2.5682631777 0.8838340904
H 6.8743451056 1.6802648747 -0.6474708075
H 4.9340094106 3.8838112451 -0.2109758602
H 5.0430505875 2.8883622099 -1.6938052246
H 2.7471804511 2.6549100973 -0.0354312615
H 3.2597749357 -3.5473588841 0.925256165
H 4.2945577283 -3.4441922472 2.4084806156
H -1.672163102 -3.8995701464 -0.6579457727
H -0.8616405133 -2.6820439258 0.4027813368
H -1.010582276 -2.3625487376 -1.3728645628
H -0.4797488651 1.4486857152 1.9552555221
H -0.6515275819 2.4870879793 0.4842627689
H 0.10084392 -0.5104151562 0.5951250201
H -0.775426113 0.1306398353 -0.8481795327
$end

$rem
JOBTYPE                   OPT
METHOD                    B3LYP
DFT_D                     d3_op
BASIS                     STO-3G
GEOM_OPT_MAX_CYCLES       100
GEOM_OPT_TOL_GRADIENT     300
GEOM_OPT_TOL_DISPLACEMENT 1200
GEOM_OPT_TOL_ENERGY       100
SYMMETRY                  False
THRESH                    12
SCF_CONVERGENCE           8
MAX_SUB_FILE_NUM          128
MEM_STATIC                400
MEM_TOTAL                 4000
$end
--------------------------------------------------------------

   16   -1510.2784631051      6.69E-09 Convergence criterion met
 Total energy in the final basis set = -1510.27846311
   14   -1510.2795833265      2.77E-09 Convergence criterion met
 Total energy in the final basis set = -1510.27958333
   13   -1510.2825688099      6.27E-09 Convergence criterion met
 Total energy in the final basis set = -1510.28256881
   13   -1510.2839641737      7.69E-09 Convergence criterion met
 Total energy in the final basis set = -1510.28396417
   12   -1510.2851546491      8.03E-09 Convergence criterion met
 Total energy in the final basis set = -1510.28515465
   13   -1510.2861275392      3.15E-09 Convergence criterion met
 Total energy in the final basis set = -1510.28612754
   13   -1510.2866463545      3.10E-09 Convergence criterion met
 Total energy in the final basis set = -1510.28664635
   13   -1510.2871915412      3.57E-09 Convergence criterion met
   11   -1510.2980175764      3.91E-09 Convergence criterion met
 Total energy in the final basis set = -1510.29801758
   11   -1510.2980279504      5.78E-09 Convergence criterion met
 Total energy in the final basis set = -1510.29802795
   11   -1510.2980487244      9.73E-09 Convergence criterion met
 Total energy in the final basis set = -1510.29804872
   12   -1510.2980497881      2.58E-09 Convergence criterion met
 Total energy in the final basis set = -1510.29804979
   11   -1510.2980628585      5.15E-09 Convergence criterion met
 Total energy in the final basis set = -1510.29806286
   10   -1510.2980669680      8.93E-09 Convergence criterion met
 Total energy in the final basis set = -1510.29806697

             Standard Nuclear Orientation (Angstroms)
    I     Atom           X                Y                Z
 ----------------------------------------------------------------
    1      O      -2.7024268814    -3.1050880758    -0.1685756203
    2      C      -3.1449469568    -1.9586215049    -0.4008520778
    3      C      -3.2576863830    -0.7744543128     0.6220611735
    4      C      -2.2995618126     0.4509309640     0.3177066509
    5      C      -1.3724618779     0.2353692059    -0.9271139382
    6      O      -0.9632464369     1.5032002225    -1.4212841581
    7      C       0.0044383405     1.3551952839    -2.5358351276
    8      C       1.3077567862     2.1621254055    -2.2078080558
    9      O       2.2485901160     1.3720288706    -1.3840504461
   10      C       2.3648832395     1.9405271913    -0.0664395066
   11      C       3.5181645396     1.1958536498     0.7046159477
   12      C       3.1538081495    -0.2508470080     1.2329911480
   13      C       1.6661441613    -0.6365046580     0.9354343711
   14      O       0.7531062026     0.1708242358     0.6396885881
   15      O      -3.7126684290    -1.5509894243    -1.6512311911
   16      O       1.5056147818    -2.0385737355     1.0754347955
   17      O       1.7549356974     2.9643844459     0.3135224688
   18      C       0.0963688860    -2.4388810071     0.8205896798
   19      C       4.7359791535     0.8519760621    -0.2579160602
   20      C       5.9924925888     0.4981641777     0.6328165096
   21      C       5.6190028801    -0.9479391284     1.1282009439
   22      C       4.2064811097    -1.1451740543     0.4493453636
   23      O       4.3491953507    -0.4496460768    -0.8495177331
   24      H       3.8264847081     1.8530499629     1.5365255395
   25      H       3.3108468587    -0.3266358273     2.3251348689
   26      H       4.9169689862     1.6002069320    -1.0530026282
   27      H       6.9088147521     0.4920558264     0.0215523286
   28      H       6.1252328210     1.2120948691     1.4611958191
   29      H       6.3324389134    -1.6994432766     0.7538369809
   30      H       5.5688060756    -1.0248311384     2.2260728191
   31      H       3.8841288008    -2.1941279754     0.3022902342
   32      O      -1.0140147820    -0.8643719102    -1.4197402090
   33      C      -3.5434214845    -2.6288238830    -2.6507145922
   34      C      -4.6747548138    -0.0563780986     0.5570768059
   35      C      -4.8482127436     0.8205292595     1.8608022977
   36      C      -3.9024663590     2.0362653989     1.5388401354
   37      C      -3.3503761579     1.6238479232     0.1193327721
   38      O      -4.5036981625     0.9474491215    -0.5177145045
   39      H      -3.0560355443    -1.1899398166     1.6247875466
   40      H      -1.6269310034     0.6517205411     1.1723224610
   41      H      -4.0102682632    -3.5776595132    -2.3160693950
   42      H      -5.5212533508    -0.7311507550     0.3257863675
   43      H      -5.8962082790     1.1413450960     1.9718304009
   44      H      -4.5478402176     0.2752793357     2.7697200387
   45      H      -4.4670205644     2.9798628942     1.4712600396
   46      H      -3.0965371802     2.1594357990     2.2795664686
   47      H      -2.9811730583     2.4539968325    -0.5129086807
   48      H      -2.4696703510    -2.8165180611    -2.8575639418
   49      H      -4.0415949385    -2.2736193721    -3.5714047644
   50      H      -0.5453515175    -2.1725880466     1.6847135037
   51      H       0.1080799120    -3.5374691232     0.7057425469
   52      H      -0.3150767050    -1.9564369397    -0.0978709377
   53      H       1.8270272892     2.4105031085    -3.1577099107
   54      H       1.0446775337     3.0939004317    -1.6593119815
   55      H      -0.4648885416     1.7684728520    -3.4544434713
   56      H       0.2201593059     0.2741771770    -2.6833577061
 ----------------------------------------------------------------

    9   -1510.2980670802      7.65E-09 Convergence criterion met
 Total energy in the final basis set = -1510.29806708
 Final energy is   -1510.29806708019
 **  OPTIMIZATION CONVERGED  **

                    Orbital Energies (a.u.)
 --------------------------------------------------------------

 Alpha MOs
 -- Occupied --
-18.940 -18.937 -18.923 -18.920 -18.886 -18.884 -18.879 -18.877
-18.863 -18.861 -10.108 -10.104 -10.092 -10.090 -10.068 -10.064
-10.058 -10.058 -10.057 -10.055 -10.054 -10.043 -10.038 -10.035
-10.034 -10.032 -10.020 -10.018 -10.017 -10.016  -1.019  -1.012
 -1.001  -0.999  -0.968  -0.966  -0.941  -0.938  -0.926  -0.925
 -0.762  -0.760  -0.725  -0.720  -0.713  -0.704  -0.692  -0.653
 -0.652  -0.612  -0.595  -0.574  -0.543  -0.542  -0.536  -0.533
 -0.511  -0.510  -0.487  -0.475  -0.466  -0.459  -0.439  -0.436
 -0.432  -0.430  -0.424  -0.413  -0.408  -0.404  -0.402  -0.399
 -0.398  -0.377  -0.372  -0.364  -0.358  -0.354  -0.349  -0.343
 -0.340  -0.336  -0.331  -0.329  -0.327  -0.322  -0.319  -0.312
 -0.309  -0.303  -0.301  -0.297  -0.291  -0.283  -0.278  -0.274
 -0.272  -0.254  -0.249  -0.242  -0.237  -0.233  -0.231  -0.189
 -0.173  -0.166  -0.161  -0.159  -0.156  -0.146  -0.142  -0.142
 -0.140

          Ground-State Mulliken Net Atomic Charges

     Atom                 Charge (a.u.)
  ----------------------------------------
      1 O                    -0.221061
      2 C                     0.210845
      3 C                    -0.081886
      4 C                    -0.077432
      5 C                     0.236150
      6 O                    -0.165854
      7 C                    -0.052831
      8 C                    -0.054209
      9 O                    -0.174637
     10 C                     0.214998
     11 C                    -0.080432
     12 C                    -0.078583
     13 C                     0.217342
     14 O                    -0.220452
     15 O                    -0.168993
     16 O                    -0.169332
     17 O                    -0.219659
     18 C                    -0.141949
     19 C                     0.026878
     20 C                    -0.144650
     21 C                    -0.143639
     22 C                     0.024617
     23 O                    -0.186648
     24 H                     0.083197
     25 H                     0.085038
     26 H                     0.083664
     27 H                     0.077510
     28 H                     0.073179
     29 H                     0.077960
     30 H                     0.073064
     31 H                     0.090703
     32 O                    -0.222810
     33 C                    -0.128037
     34 C                     0.026403
     35 C                    -0.144330
     36 C                    -0.143690
     37 C                     0.024372
     38 O                    -0.187622
     39 H                     0.080977
     40 H                     0.096564
     41 H                     0.086729
     42 H                     0.083363
     43 H                     0.077083
     44 H                     0.072739
     45 H                     0.077669
     46 H                     0.074906
     47 H                     0.091757
     48 H                     0.090897
     49 H                     0.088427
     50 H                     0.077517
     51 H                     0.090929
     52 H                     0.113973
     53 H                     0.083709
     54 H                     0.103821
     55 H                     0.085585
     56 H                     0.106170
  ----------------------------------------
  Sum of atomic charges =    -0.000000

                    Cartesian Multipole Moments
 -----------------------------------------------------------------
    Charge (ESU x 10^10)
                -0.0000
    Dipole Moment (Debye)
         X       1.0040      Y       0.3843      Z       1.1229
       Tot       1.5546
    Quadrupole Moments (Debye-Ang)
        XX    -150.3287     XY       2.9696     YY    -165.1150
        XZ       0.9497     YZ      -2.2350     ZZ    -150.2183

 Total job time:  169.37s(wall), 8076.72s(cpu)
        *  Thank you very much for using Q-Chem.  Have a nice day.  *
