 Q-Chem 5.0, Q-Chem, Inc., Pleasanton, CA (2017)
 Q-Chem 5.0.1 for Intel X86 EM64T Linux

User input:
--------------------------------------------------------------
$molecule
0  1
O -3.94934 -3.66094 2.70899
C -3.26408 -4.56952 2.26188
C -3.36658 -6.02376 2.66595
C -4.61695 -6.79333 2.20968
C -5.53944 -6.07352 1.25105
O -6.25865 -6.98242 0.52851
C -7.11366 -6.37669 -0.44684
C -7.20698 -7.26121 -1.68581
O -8.4236 -6.98173 -2.39616
C -9.54333 -7.54584 -1.87933
C -10.81015 -6.85746 -2.32873
C -11.13854 -5.55535 -1.58378
C -10.00697 -4.95324 -0.77525
O -9.47733 -5.47078 0.19747
O -2.30272 -4.24641 1.35389
O -9.61602 -3.69231 -1.11503
O -9.54656 -8.59866 -1.25419
C -8.82335 -2.86357 -0.34655
C -10.83498 -6.3815 -3.79348
C -12.28 -6.31094 -4.28058
C -12.79166 -5.13295 -3.47529
C -11.49175 -4.67042 -2.80185
O -10.48605 -5.01932 -3.72426
H -11.63036 -7.59584 -2.17177
H -11.99039 -5.68086 -0.87976
H -10.22418 -7.01404 -4.47385
H -12.24064 -6.01879 -5.35471
H -12.87204 -7.24588 -4.17938
H -13.17333 -4.36528 -4.18447
H -13.56982 -5.37617 -2.71966
H -11.57154 -3.59207 -2.54418
O -5.58342 -4.86455 1.06637
C -2.07019 -2.97189 0.88057
C -2.24429 -6.89523 2.05869
C -2.04846 -8.16133 2.89092
C -3.2835 -8.93743 2.50624
C -3.90774 -7.97771 1.48915
O -2.80116 -7.37838 0.86687
H -3.2492 -6.03178 3.77249
H -5.24605 -7.1835 3.03979
H -1.79364 -2.29671 1.71835
H -1.26828 -6.37052 1.96859
H -1.15621 -8.69668 2.49388
H -1.91741 -7.98249 3.97988
H -2.96257 -9.87153 1.99246
H -3.97294 -9.18555 3.34188
H -4.56684 -8.56985 0.81969
H -2.97605 -2.58374 0.36753
H -1.23274 -3.00118 0.15378
H -8.69241 -1.89759 -0.87569
H -7.82399 -3.30251 -0.17474
H -9.31477 -2.66933 0.63042
H -6.34315 -7.00708 -2.33473
H -7.11868 -8.34793 -1.45076
H -7.07224 -5.28986 -0.64308
H -7.97539 -6.79874 0.02778
$end

$opt
CONSTRAINT
tors           1           2           3           4     +70.698
tors           3           4           5           6    +155.631
tors           4           5           6           7    -177.329
tors           5           6           7           8    +145.626
tors           6           7           8           9    +156.249
tors           7           8           9          10     -78.836
tors           8           9          10          11    +159.515
tors           9          10          11          12     -79.270
tors          11          12          13          14     -64.262
ENDCONSTRAINT
$end

$rem
JOBTYPE                   OPT
METHOD                    B3LYP
DFT_D                     d3_op
BASIS                     STO-3G
GEOM_OPT_MAX_CYCLES       100
GEOM_OPT_TOL_GRADIENT     300
GEOM_OPT_TOL_DISPLACEMENT 1200
GEOM_OPT_TOL_ENERGY       100
SYMMETRY                  False
THRESH                    12
SCF_CONVERGENCE           8
MAX_SUB_FILE_NUM          128
MEM_STATIC                400
MEM_TOTAL                 4000
$end
--------------------------------------------------------------

   15   -1510.1134920729      9.91E-09 Convergence criterion met
 Total energy in the final basis set = -1510.11349207
   14   -1510.1868492905      2.27E-09 Convergence criterion met
 Total energy in the final basis set = -1510.18684929
   14   -1510.2271641086      2.71E-09 Convergence criterion met
 Total energy in the final basis set = -1510.22716411
   14   -1510.2527721909      4.74E-09 Convergence criterion met
 Total energy in the final basis set = -1510.25277219
   13   -1510.2651362874      6.59E-09 Convergence criterion met
 Total energy in the final basis set = -1510.26513629
   13   -1510.2716966375      3.95E-09 Convergence criterion met
 Total energy in the final basis set = -1510.27169664
   13   -1510.2751520684      2.39E-09 Convergence criterion met
 Total energy in the final basis set = -1510.27515207
   13   -1510.2765680103      2.30E-09 Convergence criterion met
   11   -1510.2784029187      9.73E-09 Convergence criterion met
 Total energy in the final basis set = -1510.27840292
    9   -1510.2784160724      8.58E-09 Convergence criterion met
 Total energy in the final basis set = -1510.27841607
   11   -1510.2784335770      2.49E-09 Convergence criterion met
 Total energy in the final basis set = -1510.27843358
    9   -1510.2784455233      6.10E-09 Convergence criterion met
 Total energy in the final basis set = -1510.27844552
   10   -1510.2784498076      8.79E-09 Convergence criterion met
 Total energy in the final basis set = -1510.27844981
    9   -1510.2784509966      6.55E-09 Convergence criterion met
 Total energy in the final basis set = -1510.27845100

             Standard Nuclear Orientation (Angstroms)
    I     Atom           X                Y                Z
 ----------------------------------------------------------------
    1      O       4.2805247808    -2.4531474321    -1.2050614931
    2      C       4.5205386767    -1.5958019479    -0.3273729801
    3      C       4.7738927354    -0.0629931631    -0.5725375155
    4      C       3.4890611506     0.7507403102    -1.0140904128
    5      C       2.1559846310     0.0442025681    -0.5618835398
    6      O       1.1251656378     1.0273897215    -0.4630498949
    7      C      -0.1350434615     0.4105842262     0.0237772811
    8      C      -0.8584620979     1.4823261509     0.9145397444
    9      O      -2.3236418145     1.2658558176     1.0131340846
   10      C      -2.9955545754     1.7390353722    -0.1653576142
   11      C      -4.4070706222     1.0617363840    -0.2928327686
   12      C      -4.4248291389    -0.4229835508    -0.8697797821
   13      C      -2.9962606605    -1.0331654168    -1.0767952919
   14      O      -2.1331373344    -0.6052853167    -1.8826896791
   15      O       4.6038960601    -1.8810958567     1.0741893343
   16      O      -2.8210083632    -2.1821151585    -0.2533689252
   17      O      -2.5032834965     2.5575276978    -0.9727751652
   18      C      -1.5022163935    -2.8186006590    -0.4907128277
   19      C      -5.1430728495     0.8446113144     1.1033410203
   20      C      -6.6921496028     0.7280216658     0.8223307687
   21      C      -6.7676039260    -0.6965244844     0.1590592771
   22      C      -5.2600146819    -1.1632732917     0.2546514585
   23      O      -4.7665831288    -0.5304944689     1.4994602249
   24      H      -5.0047439494     1.7169572906    -0.9517366445
   25      H      -4.9356148066    -0.4419925073    -1.8503029716
   26      H      -4.8557911650     1.5676489633     1.8907696285
   27      H      -7.2552041384     0.7609584602     1.7687669712
   28      H      -7.0622854897     1.5290139806     0.1628184846
   29      H      -7.4184960257    -1.3764294520     0.7311707976
   30      H      -7.1230168290    -0.6618765104    -0.8833285607
   31      H      -5.1021158180    -2.2576190574     0.2865827768
   32      O       2.0034235310    -1.1579815408    -0.2474406619
   33      C       4.2700750507    -3.3031161416     1.3122030904
   34      C       5.2763756986     0.8016857889     0.6623705154
   35      C       6.1066752714     2.0071002141     0.0721692445
   36      C       4.9578256683     2.8519900774    -0.5956790851
   37      C       3.6731921531     2.0565270289    -0.1323273639
   38      O       4.0570224417     1.4704438772     1.1756839691
   39      H       5.5183699332    -0.0108753529    -1.3886117350
   40      H       3.4629614464     0.9507633701    -2.1007081088
   41      H       5.0049004620    -3.9835907917     0.8346939642
   42      H       5.7674466917     0.2181586689     1.4642326778
   43      H       6.5972247673     2.5682631777     0.8838340904
   44      H       6.8743451056     1.6802648747    -0.6474708075
   45      H       4.9340094106     3.8838112451    -0.2109758602
   46      H       5.0430505875     2.8883622099    -1.6938052246
   47      H       2.7471804511     2.6549100973    -0.0354312615
   48      H       3.2597749357    -3.5473588841     0.9252561650
   49      H       4.2945577283    -3.4441922472     2.4084806156
   50      H      -1.6721631020    -3.8995701464    -0.6579457727
   51      H      -0.8616405133    -2.6820439258     0.4027813368
   52      H      -1.0105822760    -2.3625487376    -1.3728645628
   53      H      -0.4797488651     1.4486857152     1.9552555221
   54      H      -0.6515275819     2.4870879793     0.4842627689
   55      H       0.1008439200    -0.5104151562     0.5951250201
   56      H      -0.7754261130     0.1306398353    -0.8481795327
 ----------------------------------------------------------------

    9   -1510.2784514231      2.64E-09 Convergence criterion met
 Total energy in the final basis set = -1510.27845142
 Final energy is   -1510.27845142306
 **  OPTIMIZATION CONVERGED  **

                    Orbital Energies (a.u.)
 --------------------------------------------------------------

 Alpha MOs
 -- Occupied --
-18.949 -18.933 -18.930 -18.922 -18.889 -18.885 -18.882 -18.879
-18.877 -18.857 -10.112 -10.101 -10.100 -10.089 -10.068 -10.065
-10.061 -10.061 -10.055 -10.055 -10.055 -10.054 -10.046 -10.040
-10.037 -10.030 -10.022 -10.021 -10.018 -10.016  -1.023  -1.014
 -1.009  -0.997  -0.971  -0.966  -0.947  -0.939  -0.934  -0.922
 -0.766  -0.759  -0.727  -0.722  -0.713  -0.705  -0.691  -0.666
 -0.652  -0.615  -0.597  -0.578  -0.548  -0.541  -0.539  -0.534
 -0.517  -0.509  -0.489  -0.477  -0.465  -0.459  -0.445  -0.439
 -0.436  -0.434  -0.430  -0.418  -0.413  -0.403  -0.402  -0.399
 -0.392  -0.385  -0.377  -0.365  -0.363  -0.353  -0.352  -0.350
 -0.342  -0.337  -0.334  -0.331  -0.327  -0.326  -0.321  -0.313
 -0.309  -0.309  -0.304  -0.298  -0.292  -0.289  -0.278  -0.275
 -0.273  -0.259  -0.252  -0.247  -0.241  -0.235  -0.230  -0.189
 -0.178  -0.172  -0.167  -0.162  -0.154  -0.153  -0.145  -0.144
 -0.136

          Ground-State Mulliken Net Atomic Charges

     Atom                 Charge (a.u.)
  ----------------------------------------
      1 O                    -0.218677
      2 C                     0.213587
      3 C                    -0.082331
      4 C                    -0.075418
      5 C                     0.215012
      6 O                    -0.172109
      7 C                    -0.067279
      8 C                    -0.051996
      9 O                    -0.173304
     10 C                     0.206004
     11 C                    -0.079317
     12 C                    -0.076707
     13 C                     0.216082
     14 O                    -0.218770
     15 O                    -0.171576
     16 O                    -0.161381
     17 O                    -0.204840
     18 C                    -0.134004
     19 C                     0.025961
     20 C                    -0.143535
     21 C                    -0.144975
     22 C                     0.024582
     23 O                    -0.185985
     24 H                     0.085065
     25 H                     0.088171
     26 H                     0.086439
     27 H                     0.078367
     28 H                     0.073883
     29 H                     0.078352
     30 H                     0.072971
     31 H                     0.091830
     32 O                    -0.214141
     33 C                    -0.127430
     34 C                     0.022974
     35 C                    -0.142418
     36 C                    -0.145513
     37 C                     0.022714
     38 O                    -0.193384
     39 H                     0.081252
     40 H                     0.087831
     41 H                     0.085248
     42 H                     0.090486
     43 H                     0.076864
     44 H                     0.072664
     45 H                     0.077655
     46 H                     0.073476
     47 H                     0.090566
     48 H                     0.093003
     49 H                     0.087359
     50 H                     0.090290
     51 H                     0.092768
     52 H                     0.104627
     53 H                     0.090360
     54 H                     0.096540
     55 H                     0.090355
     56 H                     0.101754
  ----------------------------------------
  Sum of atomic charges =     0.000000

                    Cartesian Multipole Moments
 -----------------------------------------------------------------
    Charge (ESU x 10^10)
                 0.0000
    Dipole Moment (Debye)
         X      -1.2415      Y      -0.1005      Z      -0.1001
       Tot       1.2496
    Quadrupole Moments (Debye-Ang)
        XX    -135.6441     XY       5.5775     YY    -157.3049
        XZ       2.7327     YZ      -1.0475     ZZ    -165.4947

 Total job time:  100.26s(wall), 4773.40s(cpu)
        *  Thank you very much for using Q-Chem.  Have a nice day.  *
