 Q-Chem 5.0, Q-Chem, Inc., Pleasanton, CA (2017)
 Q-Chem 5.0.1 for Intel X86 EM64T Linux

User input:
--------------------------------------------------------------
$molecule
0  1
O 4.0766046179 -2.8559081268 -0.5945254169
C 3.9892491401 -1.7117616696 -0.0987289454
C 4.096930041 -0.3465250947 -0.8688161186
C 2.840814219 0.6017811775 -0.6966529869
C 1.6404468007 -0.0905305638 0.0361428945
O 0.79601896 0.9067027674 0.5853760032
C -0.1924753664 0.3447099856 1.5448746283
C -1.0461414964 1.5576927746 2.0626219787
O -2.4033413226 1.6287214842 1.4712608001
C -2.3671123514 1.5807285838 0.0404261856
C -3.7801686774 1.1753609943 -0.5126989633
C -3.7969314005 -0.229127164 -1.2594088189
C -2.4782715038 -1.0803633717 -1.2668552086
O -1.8832817347 -1.4852296962 -2.2896399999
O 3.9137377558 -1.4476003797 1.3100774209
O -2.1251309493 -1.479023332 0.0689108536
O -1.350303977 1.8045705264 -0.6513839502
C -1.146718253 -2.6041628468 0.0254864687
C -4.8831935833 0.942028701 0.6022650148
C -6.302623823 1.0094086091 -0.0866184748
C -6.3358699067 -0.3669096266 -0.8481147849
C -4.9381120076 -0.9769556069 -0.4360181079
O -4.7339177784 -0.4910156513 0.9461013636
H -4.092008494 1.9648797337 -1.2216306295
H -4.0826006737 -0.0963695185 -2.3178425758
H -4.7595187512 1.5717660527 1.5033254909
H -7.0962290419 1.0683281578 0.6753149751
H -6.397923612 1.8735929172 -0.7632226805
H -7.156261001 -1.0092554107 -0.4906219659
H -6.4304281634 -0.2486255483 -1.9395119378
H -4.876484668 -2.0818693143 -0.4715734839
O 1.468430835 -1.3304349871 0.1428185983
C 3.7575025623 -2.7211062546 2.0457736957
C 5.229720433 0.5789931942 -0.2434213042
C 5.5057960347 1.7812510376 -1.2332412914
C 4.2659559277 2.7085250678 -0.9459013193
C 3.4704617157 1.8270355408 0.0937961906
O 4.5455556888 1.2144623263 0.9056012095
H 4.2875591933 -0.5765545223 -1.931399084
H 2.4716147631 0.9374894735 -1.6843298779
H 4.5746052563 -3.4342579276 1.81372448
H 6.1308117053 0.033016167 0.0967593711
H 6.4544181996 2.2810726612 -0.9812906346
H 5.55037665 1.4467787985 -2.2820155194
H 4.5738293584 3.6599029087 -0.4835027391
H 3.6749859449 2.9285824504 -1.8494805132
H 2.7480688317 2.3679941437 0.7349152433
H 2.7883897959 -3.2052927766 1.8057296588
H 3.7847081019 -2.4604832938 3.1197906159
H -1.344722412 -3.2130901009 0.9270056717
H -0.1018226151 -2.2078275292 0.0562573979
H -1.2911878336 -3.2126331563 -0.8868128097
H -1.2267306445 1.4635632049 3.1521221166
H -0.4781065986 2.4972543386 1.8746715744
H 0.3378365597 -0.1525486609 2.3846999066
H -0.8812869807 -0.3865137572 1.0512626429
$end

$rem
JOBTYPE                   OPT
METHOD                    B3LYP
DFT_D                     d3_op
BASIS                     STO-3G
GEOM_OPT_MAX_CYCLES       100
GEOM_OPT_TOL_GRADIENT     300
GEOM_OPT_TOL_DISPLACEMENT 1200
GEOM_OPT_TOL_ENERGY       100
SYMMETRY                  False
THRESH                    12
SCF_CONVERGENCE           8
MAX_SUB_FILE_NUM          128
MEM_STATIC                400
MEM_TOTAL                 4000
$end
--------------------------------------------------------------

   16   -1510.2834206073      5.57E-09 Convergence criterion met
 Total energy in the final basis set = -1510.28342061
   15   -1510.2799703494      2.08E-09 Convergence criterion met
 Total energy in the final basis set = -1510.27997035
   14   -1510.2830028653      3.20E-09 Convergence criterion met
 Total energy in the final basis set = -1510.28300287
   15   -1510.2642705811      3.32E-09 Convergence criterion met
 Total energy in the final basis set = -1510.26427058
   14   -1510.2838547965      4.10E-09 Convergence criterion met
 Total energy in the final basis set = -1510.28385480
   14   -1510.2827609577      8.81E-09 Convergence criterion met
 Total energy in the final basis set = -1510.28276096
   13   -1510.2849782548      9.63E-09 Convergence criterion met
 Total energy in the final basis set = -1510.28497825
   13   -1510.2852845626      3.78E-09 Convergence criterion met
   12   -1510.2923649161      7.37E-09 Convergence criterion met
 Total energy in the final basis set = -1510.29236492
   12   -1510.2923298328      1.39E-09 Convergence criterion met
 Total energy in the final basis set = -1510.29232983
   11   -1510.2923638649      6.45E-09 Convergence criterion met
 Total energy in the final basis set = -1510.29236386
   11   -1510.2923713265      3.66E-09 Convergence criterion met
 Total energy in the final basis set = -1510.29237133
   10   -1510.2923801259      9.74E-09 Convergence criterion met
 Total energy in the final basis set = -1510.29238013
   10   -1510.2924050362      9.01E-09 Convergence criterion met
 Total energy in the final basis set = -1510.29240504

             Standard Nuclear Orientation (Angstroms)
    I     Atom           X                Y                Z
 ----------------------------------------------------------------
    1      O       2.8277840886    -3.0127930969    -0.1585329696
    2      C       3.1590508203    -1.8417471498     0.1280523124
    3      C       3.0995951702    -0.5907781107    -0.8138334616
    4      C       2.1400728147     0.5572870252    -0.2886590575
    5      C       1.3550291889     0.1743184050     1.0104360886
    6      O       1.1733646541     1.3241882458     1.8363964891
    7      C       0.1376522310     1.0640962535     2.8637901367
    8      C      -1.0551623828     2.0787814885     2.6620510917
    9      O      -2.2702836191     1.5497630281     1.9924379616
   10      C      -2.0320906870     1.2069787893     0.6254026847
   11      C      -3.4070233289     0.9818865158    -0.0925884456
   12      C      -3.2859849070     0.1796837705    -1.4553207026
   13      C      -1.8411855977    -0.3655369618    -1.7668219373
   14      O      -1.0509932568     0.0584825047    -2.6407302820
   15      O       3.6989657128    -1.4424914433     1.3938112787
   16      O      -1.6187300298    -1.5096540016    -0.9456627977
   17      O      -0.9026558335     1.1510126056     0.0913671565
   18      C      -0.2683231703    -2.0794368212    -1.1729563531
   19      C      -4.4267986455     0.0721351600     0.7192803758
   20      C      -5.8739736974     0.3328552109     0.1432936220
   21      C      -5.7834947348    -0.4118460864    -1.2404627257
   22      C      -4.3157667471    -0.9982169971    -1.1803743612
   23      O      -4.1181087898    -1.2980115316     0.2570445681
   24      H      -3.8425790641     1.9839266322    -0.2674278930
   25      H      -3.5949254565     0.8087506551    -2.3085868602
   26      H      -4.3264141411     0.1506485226     1.8190525507
   27      H      -6.6333509261    -0.1230864926     0.7983152119
   28      H      -6.0962866664     1.4066960275     0.0379699530
   29      H      -6.5226890057    -1.2253991147    -1.3117389764
   30      H      -5.9215588960     0.2671332447    -2.0970223805
   31      H      -4.1457675342    -1.9063884925    -1.7899865102
   32      O       0.8997841936    -0.9614717392     1.2927481444
   33      C       3.6701183006    -2.5871148386     2.3311277621
   34      C       4.4804643013     0.1948722178    -0.8699996412
   35      C       4.4350405706     1.1851513180    -2.1012321089
   36      C       3.5001930961     2.3224830657    -1.5442941397
   37      C       3.1596851079     1.7579067443    -0.1094937764
   38      O       4.4145236350     1.0908992234     0.3062677466
   39      H       2.7889798800    -0.9435784923    -1.8126461855
   40      H       1.3685595385     0.7993391273    -1.0452068657
   41      H       4.2206067262    -3.4620867174     1.9295556070
   42      H       5.3786804201    -0.4501541060    -0.8157897766
   43      H       5.4436608602     1.5645848297    -2.3296094919
   44      H       4.0250977989     0.7035877554    -3.0034302535
   45      H       4.0359006803     3.2817236425    -1.4629733853
   46      H       2.5962258238     2.4710804602    -2.1564687748
   47      H       2.8453556091     2.5076720620     0.6414855771
   48      H       2.6273891903    -2.8964972370     2.5508393965
   49      H       4.1559925586    -2.2352755044     3.2595770798
   50      H      -0.3768771467    -3.1694967062    -1.3270085395
   51      H       0.3464373437    -1.8775362338    -0.2662726128
   52      H       0.1915876248    -1.6101678845    -2.0648424261
   53      H      -1.4224327152     2.4131343655     3.6533165230
   54      H      -0.6638732473     2.9618312595     2.1093267726
   55      H       0.5945367718     1.2329701779     3.8613281623
   56      H      -0.1967742245     0.0057129846     2.7855127314
 ----------------------------------------------------------------

    9   -1510.2924072940      8.77E-09 Convergence criterion met
 Total energy in the final basis set = -1510.29240729
 Final energy is   -1510.29240729402
 **  OPTIMIZATION CONVERGED  **

                    Orbital Energies (a.u.)
 --------------------------------------------------------------

 Alpha MOs
 -- Occupied --
-18.946 -18.940 -18.924 -18.913 -18.889 -18.886 -18.883 -18.882
-18.864 -18.853 -10.112 -10.109 -10.090 -10.085 -10.084 -10.076
-10.059 -10.056 -10.056 -10.055 -10.054 -10.040 -10.034 -10.031
-10.030 -10.025 -10.019 -10.018 -10.015 -10.014  -1.026  -1.015
 -1.000  -0.992  -0.967  -0.965  -0.950  -0.942  -0.926  -0.917
 -0.762  -0.759  -0.728  -0.719  -0.714  -0.704  -0.695  -0.652
 -0.640  -0.621  -0.594  -0.580  -0.544  -0.542  -0.535  -0.533
 -0.513  -0.510  -0.486  -0.472  -0.466  -0.459  -0.448  -0.436
 -0.432  -0.428  -0.425  -0.408  -0.406  -0.404  -0.402  -0.400
 -0.390  -0.387  -0.378  -0.363  -0.359  -0.355  -0.346  -0.342
 -0.337  -0.335  -0.332  -0.327  -0.326  -0.320  -0.316  -0.314
 -0.306  -0.304  -0.300  -0.296  -0.294  -0.286  -0.282  -0.271
 -0.271  -0.262  -0.253  -0.243  -0.232  -0.230  -0.228  -0.194
 -0.178  -0.168  -0.166  -0.161  -0.148  -0.142  -0.141  -0.139
 -0.138

          Ground-State Mulliken Net Atomic Charges

     Atom                 Charge (a.u.)
  ----------------------------------------
      1 O                    -0.214985
      2 C                     0.209531
      3 C                    -0.080898
      4 C                    -0.078343
      5 C                     0.234080
      6 O                    -0.168647
      7 C                    -0.055096
      8 C                    -0.049463
      9 O                    -0.170917
     10 C                     0.217399
     11 C                    -0.078015
     12 C                    -0.080293
     13 C                     0.210705
     14 O                    -0.227348
     15 O                    -0.169733
     16 O                    -0.172686
     17 O                    -0.212753
     18 C                    -0.148729
     19 C                     0.024683
     20 C                    -0.143540
     21 C                    -0.144896
     22 C                     0.027459
     23 O                    -0.184640
     24 H                     0.084719
     25 H                     0.081771
     26 H                     0.088452
     27 H                     0.077808
     28 H                     0.072178
     29 H                     0.077627
     30 H                     0.072892
     31 H                     0.085904
     32 O                    -0.217814
     33 C                    -0.128632
     34 C                     0.026133
     35 C                    -0.144100
     36 C                    -0.143720
     37 C                     0.024221
     38 O                    -0.187845
     39 H                     0.085731
     40 H                     0.102199
     41 H                     0.088092
     42 H                     0.082440
     43 H                     0.076690
     44 H                     0.074918
     45 H                     0.076311
     46 H                     0.076490
     47 H                     0.090157
     48 H                     0.090417
     49 H                     0.088353
     50 H                     0.080928
     51 H                     0.105572
     52 H                     0.087184
     53 H                     0.092462
     54 H                     0.092793
     55 H                     0.088633
     56 H                     0.108163
  ----------------------------------------
  Sum of atomic charges =    -0.000000

                    Cartesian Multipole Moments
 -----------------------------------------------------------------
    Charge (ESU x 10^10)
                -0.0000
    Dipole Moment (Debye)
         X      -1.5870      Y       2.7094      Z       1.0051
       Tot       3.2969
    Quadrupole Moments (Debye-Ang)
        XX    -150.6963     XY      -6.4920     YY    -160.6674
        XZ      -0.4992     YZ       1.6404     ZZ    -152.5437

 Total job time:  111.23s(wall), 5298.93s(cpu)
        *  Thank you very much for using Q-Chem.  Have a nice day.  *
