 Q-Chem 5.0, Q-Chem, Inc., Pleasanton, CA (2017)
 Q-Chem 5.0.1 for Intel X86 EM64T Linux

User input:
--------------------------------------------------------------
$molecule
0  1
O -3.94934 -3.66094 2.70899
C -3.26408 -4.56952 2.26188
C -3.36658 -6.02376 2.66595
C -3.63465 -7.04606 1.5493
C -3.59358 -6.52189 0.13098
O -3.36652 -7.55111 -0.73767
C -3.02839 -7.1103 -2.057
C -2.79003 -8.3106 -2.96728
O -3.91425 -8.49191 -3.84257
C -5.1242 -8.55157 -3.23299
C -6.27247 -8.28586 -4.17721
C -7.07287 -7.00943 -3.87997
C -6.41496 -6.02127 -2.93794
O -6.89789 -5.60836 -1.89351
O -2.22542 -4.24336 1.44306
O -5.39878 -5.30327 -3.48971
O -5.29573 -8.81338 -2.04969
C -5.01157 -4.04159 -3.08358
C -5.92457 -8.03624 -5.66838
C -7.12995 -8.38623 -6.54216
C -8.07375 -7.25268 -6.19433
C -7.16596 -6.40776 -5.29418
O -5.87244 -6.63729 -5.80119
H -6.90735 -9.1996 -4.13322
H -8.06603 -7.25145 -3.44033
H -5.03594 -8.59878 -6.02702
H -6.80624 -8.26375 -7.60099
H -7.54519 -9.40802 -6.40684
H -8.32666 -6.70637 -7.12998
H -9.00316 -7.55378 -5.66402
H -7.50468 -5.34833 -5.27474
O -3.80156 -5.3701 -0.21904
C -1.93491 -2.96226 1.02294
C -2.04225 -6.52978 3.25547
C -2.29355 -7.7517 4.13584
C -2.59542 -8.79246 3.08241
C -2.40286 -7.96413 1.80728
O -1.37455 -7.06764 2.14547
H -4.167 -6.07132 3.43857
H -4.57069 -7.63554 1.66676
H -1.71492 -2.31335 1.89751
H -1.49442 -5.74846 3.82744
H -1.33359 -8.01738 4.63362
H -3.08332 -7.60972 4.90473
H -1.81135 -9.5808 3.13778
H -3.60251 -9.2584 3.14397
H -2.17216 -8.65926 0.97221
H -2.79036 -2.54533 0.44945
H -1.04263 -2.9896 0.36461
H -4.14818 -3.7118 -3.69676
H -4.71711 -4.03733 -2.01899
H -5.84805 -3.32589 -3.23094
H -1.93303 -8.08703 -3.63846
H -2.53259 -9.22784 -2.39316
H -2.04204 -6.6018 -1.95381
H -3.69563 -6.3739 -2.49568
$end

$opt
CONSTRAINT
tors           1           2           3           4    +123.228
tors           3           4           5           6    +158.357
tors           4           5           6           7    -167.328
tors           5           6           7           8    -180.000
tors           6           7           8           9    +104.466
tors           7           8           9          10     -52.255
tors           8           9          10          11    +161.053
tors           9          10          11          12    -114.869
tors          11          12          13          14    -122.986
ENDCONSTRAINT
$end

$rem
JOBTYPE                   OPT
METHOD                    B3LYP
DFT_D                     d3_op
BASIS                     STO-3G
GEOM_OPT_MAX_CYCLES       100
GEOM_OPT_TOL_GRADIENT     300
GEOM_OPT_TOL_DISPLACEMENT 1200
GEOM_OPT_TOL_ENERGY       100
SYMMETRY                  False
THRESH                    12
SCF_CONVERGENCE           8
MAX_SUB_FILE_NUM          128
MEM_STATIC                400
MEM_TOTAL                 4000
$end
--------------------------------------------------------------

   15   -1510.1477495319      6.94E-09 Convergence criterion met
 Total energy in the final basis set = -1510.14774953
   14   -1510.2174694680      6.02E-09 Convergence criterion met
 Total energy in the final basis set = -1510.21746947
   14   -1510.2529477712      6.94E-09 Convergence criterion met
 Total energy in the final basis set = -1510.25294777
   14   -1510.2671997793      4.21E-09 Convergence criterion met
 Total energy in the final basis set = -1510.26719978
   14   -1510.2750796938      2.84E-09 Convergence criterion met
 Total energy in the final basis set = -1510.27507969
   14   -1510.2796210876      3.53E-09 Convergence criterion met
 Total energy in the final basis set = -1510.27962109
   13   -1510.2804302102      5.31E-09 Convergence criterion met
 Total energy in the final basis set = -1510.28043021
   12   -1510.2814450129      9.92E-09 Convergence criterion met
   11   -1510.2833278380      8.24E-09 Convergence criterion met
 Total energy in the final basis set = -1510.28332784
   11   -1510.2833604774      4.35E-09 Convergence criterion met
 Total energy in the final basis set = -1510.28336048
   11   -1510.2833883634      3.73E-09 Convergence criterion met
 Total energy in the final basis set = -1510.28338836
   11   -1510.2834059465      3.16E-09 Convergence criterion met
 Total energy in the final basis set = -1510.28340595
   10   -1510.2834073484      7.95E-09 Convergence criterion met
 Total energy in the final basis set = -1510.28340735
    9   -1510.2834104523      7.30E-09 Convergence criterion met
 Total energy in the final basis set = -1510.28341045

             Standard Nuclear Orientation (Angstroms)
    I     Atom           X                Y                Z
 ----------------------------------------------------------------
    1      O       4.0766046179    -2.8559081268    -0.5945254169
    2      C       3.9892491401    -1.7117616696    -0.0987289454
    3      C       4.0969300410    -0.3465250947    -0.8688161186
    4      C       2.8408142190     0.6017811775    -0.6966529869
    5      C       1.6404468007    -0.0905305638     0.0361428945
    6      O       0.7960189600     0.9067027674     0.5853760032
    7      C      -0.1924753664     0.3447099856     1.5448746283
    8      C      -1.0461414964     1.5576927746     2.0626219787
    9      O      -2.4033413226     1.6287214842     1.4712608001
   10      C      -2.3671123514     1.5807285838     0.0404261856
   11      C      -3.7801686774     1.1753609943    -0.5126989633
   12      C      -3.7969314005    -0.2291271640    -1.2594088189
   13      C      -2.4782715038    -1.0803633717    -1.2668552086
   14      O      -1.8832817347    -1.4852296962    -2.2896399999
   15      O       3.9137377558    -1.4476003797     1.3100774209
   16      O      -2.1251309493    -1.4790233320     0.0689108536
   17      O      -1.3503039770     1.8045705264    -0.6513839502
   18      C      -1.1467182530    -2.6041628468     0.0254864687
   19      C      -4.8831935833     0.9420287010     0.6022650148
   20      C      -6.3026238230     1.0094086091    -0.0866184748
   21      C      -6.3358699067    -0.3669096266    -0.8481147849
   22      C      -4.9381120076    -0.9769556069    -0.4360181079
   23      O      -4.7339177784    -0.4910156513     0.9461013636
   24      H      -4.0920084940     1.9648797337    -1.2216306295
   25      H      -4.0826006737    -0.0963695185    -2.3178425758
   26      H      -4.7595187512     1.5717660527     1.5033254909
   27      H      -7.0962290419     1.0683281578     0.6753149751
   28      H      -6.3979236120     1.8735929172    -0.7632226805
   29      H      -7.1562610010    -1.0092554107    -0.4906219659
   30      H      -6.4304281634    -0.2486255483    -1.9395119378
   31      H      -4.8764846680    -2.0818693143    -0.4715734839
   32      O       1.4684308350    -1.3304349871     0.1428185983
   33      C       3.7575025623    -2.7211062546     2.0457736957
   34      C       5.2297204330     0.5789931942    -0.2434213042
   35      C       5.5057960347     1.7812510376    -1.2332412914
   36      C       4.2659559277     2.7085250678    -0.9459013193
   37      C       3.4704617157     1.8270355408     0.0937961906
   38      O       4.5455556888     1.2144623263     0.9056012095
   39      H       4.2875591933    -0.5765545223    -1.9313990840
   40      H       2.4716147631     0.9374894735    -1.6843298779
   41      H       4.5746052563    -3.4342579276     1.8137244800
   42      H       6.1308117053     0.0330161670     0.0967593711
   43      H       6.4544181996     2.2810726612    -0.9812906346
   44      H       5.5503766500     1.4467787985    -2.2820155194
   45      H       4.5738293584     3.6599029087    -0.4835027391
   46      H       3.6749859449     2.9285824504    -1.8494805132
   47      H       2.7480688317     2.3679941437     0.7349152433
   48      H       2.7883897959    -3.2052927766     1.8057296588
   49      H       3.7847081019    -2.4604832938     3.1197906159
   50      H      -1.3447224120    -3.2130901009     0.9270056717
   51      H      -0.1018226151    -2.2078275292     0.0562573979
   52      H      -1.2911878336    -3.2126331563    -0.8868128097
   53      H      -1.2267306445     1.4635632049     3.1521221166
   54      H      -0.4781065986     2.4972543386     1.8746715744
   55      H       0.3378365597    -0.1525486609     2.3846999066
   56      H      -0.8812869807    -0.3865137572     1.0512626429
 ----------------------------------------------------------------

    9   -1510.2834106363      4.99E-09 Convergence criterion met
 Total energy in the final basis set = -1510.28341064
 Final energy is   -1510.28341063625
 **  OPTIMIZATION CONVERGED  **

                    Orbital Energies (a.u.)
 --------------------------------------------------------------

 Alpha MOs
 -- Occupied --
-18.945 -18.934 -18.932 -18.919 -18.888 -18.887 -18.886 -18.878
-18.877 -18.860 -10.111 -10.102 -10.098 -10.088 -10.078 -10.068
-10.061 -10.059 -10.058 -10.057 -10.053 -10.040 -10.039 -10.037
-10.037 -10.032 -10.021 -10.020 -10.018 -10.017  -1.022  -1.012
 -1.007  -0.997  -0.970  -0.968  -0.945  -0.940  -0.933  -0.923
 -0.764  -0.761  -0.728  -0.721  -0.715  -0.706  -0.695  -0.651
 -0.650  -0.618  -0.598  -0.581  -0.545  -0.544  -0.538  -0.536
 -0.516  -0.513  -0.487  -0.474  -0.468  -0.461  -0.446  -0.437
 -0.433  -0.430  -0.427  -0.417  -0.410  -0.406  -0.403  -0.401
 -0.389  -0.382  -0.371  -0.364  -0.361  -0.358  -0.348  -0.346
 -0.341  -0.337  -0.333  -0.332  -0.328  -0.323  -0.320  -0.314
 -0.309  -0.306  -0.303  -0.299  -0.298  -0.290  -0.282  -0.276
 -0.270  -0.257  -0.255  -0.245  -0.241  -0.234  -0.232  -0.188
 -0.176  -0.175  -0.163  -0.161  -0.155  -0.149  -0.143  -0.141
 -0.139

          Ground-State Mulliken Net Atomic Charges

     Atom                 Charge (a.u.)
  ----------------------------------------
      1 O                    -0.217229
      2 C                     0.212668
      3 C                    -0.080185
      4 C                    -0.077605
      5 C                     0.225771
      6 O                    -0.162719
      7 C                    -0.060515
      8 C                    -0.046156
      9 O                    -0.172048
     10 C                     0.208224
     11 C                    -0.078860
     12 C                    -0.078801
     13 C                     0.206450
     14 O                    -0.207141
     15 O                    -0.171566
     16 O                    -0.175085
     17 O                    -0.208045
     18 C                    -0.153202
     19 C                     0.024465
     20 C                    -0.144207
     21 C                    -0.144285
     22 C                     0.026499
     23 O                    -0.186195
     24 H                     0.084245
     25 H                     0.086289
     26 H                     0.091461
     27 H                     0.077769
     28 H                     0.073096
     29 H                     0.078086
     30 H                     0.074019
     31 H                     0.082931
     32 O                    -0.214043
     33 C                    -0.128438
     34 C                     0.026363
     35 C                    -0.144704
     36 C                    -0.143017
     37 C                     0.024939
     38 O                    -0.187227
     39 H                     0.084973
     40 H                     0.089581
     41 H                     0.087609
     42 H                     0.083114
     43 H                     0.077373
     44 H                     0.074051
     45 H                     0.077440
     46 H                     0.074660
     47 H                     0.089056
     48 H                     0.088524
     49 H                     0.086635
     50 H                     0.081278
     51 H                     0.112305
     52 H                     0.088276
     53 H                     0.092701
     54 H                     0.092067
     55 H                     0.086515
     56 H                     0.111841
  ----------------------------------------
  Sum of atomic charges =    -0.000000

                    Cartesian Multipole Moments
 -----------------------------------------------------------------
    Charge (ESU x 10^10)
                -0.0000
    Dipole Moment (Debye)
         X      -1.5576      Y       1.9040      Z       0.5849
       Tot       2.5285
    Quadrupole Moments (Debye-Ang)
        XX    -146.9545     XY       2.5591     YY    -160.2544
        XZ       2.2216     YZ      -5.6339     ZZ    -159.5134

 Total job time:  60.66s(wall), 2886.25s(cpu)
        *  Thank you very much for using Q-Chem.  Have a nice day.  *
