 Q-Chem 5.0, Q-Chem, Inc., Pleasanton, CA (2017)
 Q-Chem 5.0.1 for Intel X86 EM64T Linux

User input:
--------------------------------------------------------------
$molecule
0  1
O -3.94934 -3.66094 2.70899
C -3.26408 -4.56952 2.26188
C -3.36658 -6.02376 2.66595
C -4.17128 -6.95422 1.7437
C -4.634 -6.36566 0.42932
O -4.64471 -7.33352 -0.5343
C -5.06682 -6.84966 -1.81374
C -5.0534 -7.9826 -2.83472
O -6.39701 -8.40825 -3.11115
C -7.14657 -8.71601 -2.02368
C -8.60963 -8.89901 -2.35019
C -9.54882 -7.86209 -1.71695
C -8.88297 -6.61803 -1.16409
O -9.12721 -6.10487 -0.08169
O -2.45992 -4.30624 1.19678
O -8.22459 -5.85665 -2.0783
O -6.70884 -8.89463 -0.89492
C -7.91976 -4.51948 -1.90692
C -9.01718 -8.75204 -3.83964
C -10.32354 -9.50564 -4.09441
C -11.31184 -8.61539 -3.36986
C -10.38763 -7.46917 -2.94736
O -9.42344 -7.41332 -3.97132
H -8.8575 -9.93886 -2.03895
H -10.16683 -8.2929 -0.89816
H -8.2458 -9.10591 -4.557
H -10.5276 -9.44256 -5.18765
H -10.32986 -10.5729 -3.78502
H -12.06873 -8.26013 -4.104
H -11.81679 -9.07849 -2.49454
H -10.97114 -6.53771 -2.7748
O -5.26405 -5.31834 0.35039
C -2.29681 -3.05857 0.6327
C -2.00222 -6.73026 2.70805
C -2.06443 -7.92408 3.65656
C -2.92293 -8.87472 2.85181
C -3.10252 -8.068 1.55936
O -1.90186 -7.34335 1.44666
H -3.81812 -6.0148 3.68423
H -5.08626 -7.34196 2.24428
H -1.88589 -2.35039 1.38366
H -1.1678 -6.05267 2.99397
H -1.03594 -8.34559 3.72571
H -2.43772 -7.69511 4.67793
H -2.3299 -9.7955 2.6534
H -3.89721 -9.14493 3.31347
H -3.31896 -8.77845 0.73399
H -3.26954 -2.6808 0.25136
H -1.58567 -3.13334 -0.2153
H -7.36917 -4.15491 -2.79818
H -7.28647 -4.37405 -1.00799
H -8.85419 -3.9288 -1.79812
H -4.6681 -7.59084 -3.80059
H -4.38775 -8.81819 -2.52501
H -4.27872 -6.1304 -2.13552
H -6.00185 -6.29253 -1.80983
$end

$opt
CONSTRAINT
tors           1           2           3           4     +98.823
tors           3           4           5           6    +146.832
tors           4           5           6           7    -179.695
tors           5           6           7           8    -180.000
tors           6           7           8           9    +105.124
tors           7           8           9          10     -52.255
tors           8           9          10          11    +169.028
tors           9          10          11          12    -114.869
tors          11          12          13          14    -134.937
ENDCONSTRAINT
$end

$rem
JOBTYPE                   OPT
METHOD                    B3LYP
DFT_D                     d3_op
BASIS                     STO-3G
GEOM_OPT_MAX_CYCLES       100
GEOM_OPT_TOL_GRADIENT     300
GEOM_OPT_TOL_DISPLACEMENT 1200
GEOM_OPT_TOL_ENERGY       100
SYMMETRY                  False
THRESH                    12
SCF_CONVERGENCE           8
MAX_SUB_FILE_NUM          128
MEM_STATIC                400
MEM_TOTAL                 4000
$end
--------------------------------------------------------------

   15   -1510.1472506374      6.84E-09 Convergence criterion met
 Total energy in the final basis set = -1510.14725064
   14   -1510.2168240863      5.96E-09 Convergence criterion met
 Total energy in the final basis set = -1510.21682409
   14   -1510.2543581129      7.48E-09 Convergence criterion met
 Total energy in the final basis set = -1510.25435811
   14   -1510.2716466480      5.43E-09 Convergence criterion met
 Total energy in the final basis set = -1510.27164665
   13   -1510.2756975733      9.82E-09 Convergence criterion met
 Total energy in the final basis set = -1510.27569757
   14   -1510.2776768069      6.75E-09 Convergence criterion met
 Total energy in the final basis set = -1510.27767681
   14   -1510.2794361676      6.80E-09 Convergence criterion met
 Total energy in the final basis set = -1510.27943617
   13   -1510.2811448114      8.47E-09 Convergence criterion met
   11   -1510.2845693174      5.00E-09 Convergence criterion met
 Total energy in the final basis set = -1510.28456932
   11   -1510.2845882051      2.99E-09 Convergence criterion met
 Total energy in the final basis set = -1510.28458821
    9   -1510.2845975808      8.48E-09 Convergence criterion met
 Total energy in the final basis set = -1510.28459758
    9   -1510.2846065684      9.14E-09 Convergence criterion met
 Total energy in the final basis set = -1510.28460657
    9   -1510.2846091947      8.54E-09 Convergence criterion met
 Total energy in the final basis set = -1510.28460919
    9   -1510.2846112225      6.70E-09 Convergence criterion met
 Total energy in the final basis set = -1510.28461122

             Standard Nuclear Orientation (Angstroms)
    I     Atom           X                Y                Z
 ----------------------------------------------------------------
    1      O       4.0341745534    -2.6917721196    -0.8445303260
    2      C       4.1518563421    -1.6055469479    -0.2372088626
    3      C       4.1427306484    -0.1714937193    -0.8746633031
    4      C       2.7439639118     0.5712532652    -0.7726487125
    5      C       1.7052607540    -0.1944388890     0.1233137386
    6      O       0.8713516677     0.7409854601     0.7881306219
    7      C      -0.1195758074     0.0469699976     1.6512437409
    8      C      -0.9970263424     1.1470269375     2.3460846827
    9      O      -2.3537227626     1.2501036615     1.7544803174
   10      C      -2.3142957764     1.4076289841     0.3334573198
   11      C      -3.7610261245     1.2285369900    -0.2511882390
   12      C      -3.9151714206    -0.0448551685    -1.1912396597
   13      C      -2.6702560635    -0.9574802511    -1.4657343256
   14      O      -2.3556311115    -1.3861578531    -2.5998686048
   15      O       4.3171898326    -1.4872784664     1.1814834090
   16      O      -2.0267628894    -1.3867714604    -0.2531889239
   17      O      -1.2877610360     1.6686757606    -0.3297265102
   18      C      -1.0723644570    -2.4930956391    -0.5525506839
   19      C      -4.8596967607     0.9233960334     0.8493517454
   20      C      -6.2891320098     1.1424846251     0.2116488838
   21      C      -6.4317105268    -0.1507523538    -0.6735929597
   22      C      -5.0446199100    -0.8538781373    -0.4024392539
   23      O      -4.7697797210    -0.5458268771     1.0166881950
   24      H      -4.0012656794     2.1420405111    -0.8259726090
   25      H      -4.2807377656     0.2607285923    -2.1876687128
   26      H      -4.6857019126     1.4331895471     1.8155731727
   27      H      -7.0596632092     1.1810712452     0.9980508359
   28      H      -6.3415353192     2.0706171478    -0.3795592750
   29      H      -7.2588770746    -0.7900895616    -0.3260831082
   30      H      -6.5834414237     0.0746370770    -1.7412988023
   31      H      -5.0288284659    -1.9478328828    -0.5733782194
   32      O       1.5961721783    -1.4405561481     0.2377913885
   33      C       4.1990024384    -2.8227180826     1.8079829200
   34      C       5.0907994553     0.8817420103    -0.1554909122
   35      C       5.3723430207     2.0525980714    -1.1779467664
   36      C       3.9828243582     2.7917866393    -1.1773640278
   37      C       3.1834689884     1.9432081954    -0.1115841487
   38      O       4.2195011533     1.5188218292     0.8583323731
   39      H       4.4247137552    -0.2966493207    -1.9351796873
   40      H       2.2918355381     0.7175997448    -1.7715092650
   41      H       4.9588472481    -3.5301936592     1.4174096431
   42      H       5.9874839428     0.4433907399     0.3230705367
   43      H       6.1761567132     2.7053294665    -0.8017294413
   44      H       5.6572183145     1.6775549153    -2.1739801302
   45      H       4.0792062697     3.8375093897    -0.8452119424
   46      H       3.4933089736     2.7786972448    -2.1643596631
   47      H       2.3568342406     2.4699391609     0.4023365861
   48      H       3.1922016853    -3.2560003219     1.6359722762
   49      H       4.3575840949    -2.6684786203     2.8911657943
   50      H      -1.4050711498    -3.3897735495     0.0047330384
   51      H      -0.0504648016    -2.1951554659    -0.2209898836
   52      H      -1.0836749600    -2.6899999598    -1.6419799067
   53      H      -1.1770597290     0.8880552290     3.4082450386
   54      H      -0.4639694219     2.1234149070     2.2975739501
   55      H       0.4073262801    -0.5744919486     2.4063476570
   56      H      -0.7966352655    -0.6009058435     1.0455759733
 ----------------------------------------------------------------

    9   -1510.2846115712      4.68E-09 Convergence criterion met
 Total energy in the final basis set = -1510.28461157
 Final energy is   -1510.28461157124
 **  OPTIMIZATION CONVERGED  **

                    Orbital Energies (a.u.)
 --------------------------------------------------------------

 Alpha MOs
 -- Occupied --
-18.944 -18.935 -18.933 -18.922 -18.890 -18.883 -18.880 -18.877
-18.875 -18.861 -10.107 -10.102 -10.101 -10.089 -10.078 -10.067
-10.063 -10.059 -10.056 -10.054 -10.054 -10.041 -10.040 -10.037
-10.037 -10.031 -10.022 -10.021 -10.017 -10.016  -1.021  -1.012
 -1.008  -0.999  -0.972  -0.966  -0.941  -0.939  -0.934  -0.924
 -0.764  -0.760  -0.729  -0.721  -0.714  -0.706  -0.695  -0.652
 -0.650  -0.618  -0.598  -0.581  -0.546  -0.542  -0.539  -0.534
 -0.516  -0.512  -0.487  -0.473  -0.468  -0.462  -0.445  -0.438
 -0.434  -0.429  -0.427  -0.415  -0.411  -0.405  -0.402  -0.401
 -0.389  -0.383  -0.371  -0.366  -0.363  -0.359  -0.348  -0.343
 -0.340  -0.338  -0.333  -0.333  -0.327  -0.323  -0.321  -0.310
 -0.309  -0.305  -0.303  -0.302  -0.296  -0.289  -0.281  -0.275
 -0.271  -0.259  -0.253  -0.243  -0.242  -0.235  -0.231  -0.184
 -0.175  -0.174  -0.166  -0.160  -0.156  -0.149  -0.144  -0.142
 -0.138

          Ground-State Mulliken Net Atomic Charges

     Atom                 Charge (a.u.)
  ----------------------------------------
      1 O                    -0.214663
      2 C                     0.211278
      3 C                    -0.081518
      4 C                    -0.076065
      5 C                     0.221138
      6 O                    -0.160108
      7 C                    -0.058462
      8 C                    -0.046364
      9 O                    -0.170786
     10 C                     0.210612
     11 C                    -0.078754
     12 C                    -0.078937
     13 C                     0.209002
     14 O                    -0.210888
     15 O                    -0.171648
     16 O                    -0.175830
     17 O                    -0.211643
     18 C                    -0.154691
     19 C                     0.024873
     20 C                    -0.144749
     21 C                    -0.143515
     22 C                     0.026203
     23 O                    -0.186806
     24 H                     0.084745
     25 H                     0.086811
     26 H                     0.091713
     27 H                     0.078013
     28 H                     0.073299
     29 H                     0.078457
     30 H                     0.074624
     31 H                     0.083052
     32 O                    -0.219837
     33 C                    -0.128416
     34 C                     0.025606
     35 C                    -0.143581
     36 C                    -0.144643
     37 C                     0.023479
     38 O                    -0.189991
     39 H                     0.083214
     40 H                     0.089752
     41 H                     0.086909
     42 H                     0.085074
     43 H                     0.076911
     44 H                     0.073291
     45 H                     0.077312
     46 H                     0.074041
     47 H                     0.092739
     48 H                     0.091530
     49 H                     0.087279
     50 H                     0.080332
     51 H                     0.106169
     52 H                     0.098781
     53 H                     0.093567
     54 H                     0.092311
     55 H                     0.087178
     56 H                     0.112597
  ----------------------------------------
  Sum of atomic charges =    -0.000000

                    Cartesian Multipole Moments
 -----------------------------------------------------------------
    Charge (ESU x 10^10)
                 0.0000
    Dipole Moment (Debye)
         X      -1.4322      Y       1.8362      Z       0.6383
       Tot       2.4146
    Quadrupole Moments (Debye-Ang)
        XX    -145.4633     XY      -0.8915     YY    -159.7487
        XZ       0.7838     YZ      -6.4418     ZZ    -160.5732

 Total job time:  64.52s(wall), 3071.46s(cpu)
        *  Thank you very much for using Q-Chem.  Have a nice day.  *
