 Q-Chem 5.0, Q-Chem, Inc., Pleasanton, CA (2017)
 Q-Chem 5.0.1 for Intel X86 EM64T Linux

User input:
--------------------------------------------------------------
$molecule
0  1
O 4.0341745534 -2.6917721196 -0.844530326
C 4.1518563421 -1.6055469479 -0.2372088626
C 4.1427306484 -0.1714937193 -0.8746633031
C 2.7439639118 0.5712532652 -0.7726487125
C 1.705260754 -0.194438889 0.1233137386
O 0.8713516677 0.7409854601 0.7881306219
C -0.1195758074 0.0469699976 1.6512437409
C -0.9970263424 1.1470269375 2.3460846827
O -2.3537227626 1.2501036615 1.7544803174
C -2.3142957764 1.4076289841 0.3334573198
C -3.7610261245 1.22853699 -0.251188239
C -3.9151714206 -0.0448551685 -1.1912396597
C -2.6702560635 -0.9574802511 -1.4657343256
O -2.3556311115 -1.3861578531 -2.5998686048
O 4.3171898326 -1.4872784664 1.181483409
O -2.0267628894 -1.3867714604 -0.2531889239
O -1.287761036 1.6686757606 -0.3297265102
C -1.072364457 -2.4930956391 -0.5525506839
C -4.8596967607 0.9233960334 0.8493517454
C -6.2891320098 1.1424846251 0.2116488838
C -6.4317105268 -0.1507523538 -0.6735929597
C -5.04461991 -0.8538781373 -0.4024392539
O -4.769779721 -0.5458268771 1.016688195
H -4.0012656794 2.1420405111 -0.825972609
H -4.2807377656 0.2607285923 -2.1876687128
H -4.6857019126 1.4331895471 1.8155731727
H -7.0596632092 1.1810712452 0.9980508359
H -6.3415353192 2.0706171478 -0.379559275
H -7.2588770746 -0.7900895616 -0.3260831082
H -6.5834414237 0.074637077 -1.7412988023
H -5.0288284659 -1.9478328828 -0.5733782194
O 1.5961721783 -1.4405561481 0.2377913885
C 4.1990024384 -2.8227180826 1.80798292
C 5.0907994553 0.8817420103 -0.1554909122
C 5.3723430207 2.0525980714 -1.1779467664
C 3.9828243582 2.7917866393 -1.1773640278
C 3.1834689884 1.9432081954 -0.1115841487
O 4.2195011533 1.5188218292 0.8583323731
H 4.4247137552 -0.2966493207 -1.9351796873
H 2.2918355381 0.7175997448 -1.771509265
H 4.9588472481 -3.5301936592 1.4174096431
H 5.9874839428 0.4433907399 0.3230705367
H 6.1761567132 2.7053294665 -0.8017294413
H 5.6572183145 1.6775549153 -2.1739801302
H 4.0792062697 3.8375093897 -0.8452119424
H 3.4933089736 2.7786972448 -2.1643596631
H 2.3568342406 2.4699391609 0.4023365861
H 3.1922016853 -3.2560003219 1.6359722762
H 4.3575840949 -2.6684786203 2.8911657943
H -1.4050711498 -3.3897735495 0.0047330384
H -0.0504648016 -2.1951554659 -0.2209898836
H -1.08367496 -2.6899999598 -1.6419799067
H -1.177059729 0.888055229 3.4082450386
H -0.4639694219 2.123414907 2.2975739501
H 0.4073262801 -0.5744919486 2.406347657
H -0.7966352655 -0.6009058435 1.0455759733
$end

$rem
JOBTYPE                   OPT
METHOD                    B3LYP
DFT_D                     d3_op
BASIS                     STO-3G
GEOM_OPT_MAX_CYCLES       100
GEOM_OPT_TOL_GRADIENT     300
GEOM_OPT_TOL_DISPLACEMENT 1200
GEOM_OPT_TOL_ENERGY       100
SYMMETRY                  False
THRESH                    12
SCF_CONVERGENCE           8
MAX_SUB_FILE_NUM          128
MEM_STATIC                400
MEM_TOTAL                 4000
$end
--------------------------------------------------------------

   16   -1510.2845972078      5.42E-09 Convergence criterion met
 Total energy in the final basis set = -1510.28459721
   13   -1510.2831862870      9.45E-09 Convergence criterion met
 Total energy in the final basis set = -1510.28318629
   13   -1510.2832415557      4.96E-09 Convergence criterion met
 Total energy in the final basis set = -1510.28324156
   14   -1510.2844478691      7.32E-09 Convergence criterion met
 Total energy in the final basis set = -1510.28444787
   14   -1510.2854125127      7.11E-09 Convergence criterion met
 Total energy in the final basis set = -1510.28541251
   14   -1510.2856022027      5.72E-09 Convergence criterion met
 Total energy in the final basis set = -1510.28560220
   13   -1510.2866555074      8.80E-09 Convergence criterion met
 Total energy in the final basis set = -1510.28665551
   13   -1510.2868997599      7.42E-09 Convergence criterion met
   11   -1510.2923730338      7.94E-09 Convergence criterion met
 Total energy in the final basis set = -1510.29237303
   11   -1510.2923789481      4.68E-09 Convergence criterion met
 Total energy in the final basis set = -1510.29237895
   11   -1510.2923872184      2.78E-09 Convergence criterion met
 Total energy in the final basis set = -1510.29238722
    9   -1510.2923803348      9.90E-09 Convergence criterion met
 Total energy in the final basis set = -1510.29238033
    9   -1510.2923834391      3.89E-09 Convergence criterion met
 Total energy in the final basis set = -1510.29238344
    9   -1510.2923842654      1.02E-09 Convergence criterion met
 Total energy in the final basis set = -1510.29238427

             Standard Nuclear Orientation (Angstroms)
    I     Atom           X                Y                Z
 ----------------------------------------------------------------
    1      O       2.8647331580    -2.9656575685    -0.2219156327
    2      C       3.1868997719    -1.7918703676     0.0638800175
    3      C       3.0983107446    -0.5384587275    -0.8723501230
    4      C       2.1370008654     0.5979877762    -0.3262359442
    5      C       1.3722392956     0.2016393117     0.9809546567
    6      O       1.1827982257     1.3487437008     1.8092311578
    7      C       0.1604071348     1.0747306952     2.8463279796
    8      C      -1.0457931373     2.0760754975     2.6575153786
    9      O      -2.2622988032     1.5331832267     2.0017160352
   10      C      -2.0351934504     1.1921100220     0.6323905544
   11      C      -3.4152456036     0.9518601851    -0.0708331967
   12      C      -3.3000712958     0.1495160800    -1.4340105295
   13      C      -1.8522701441    -0.3776886465    -1.7619798838
   14      O      -1.0778533323     0.0548684623    -2.6457559404
   15      O       3.7420560249    -1.3909877989     1.3224776619
   16      O      -1.6061924400    -1.5180722549    -0.9422901689
   17      O      -0.9108932174     1.1471484189     0.0865968928
   18      C      -0.2517420771    -2.0716239443    -1.1846839932
   19      C      -4.4158821594     0.0317007430     0.7528471190
   20      C      -5.8719297500     0.2738332410     0.1907208608
   21      C      -5.7870278305    -0.4741240872    -1.1916145477
   22      C      -4.3112881507    -1.0413521021    -1.1456133597
   23      O      -4.0950473884    -1.3354793548     0.2902685388
   24      H      -3.8635775248     1.9489395462    -0.2416297966
   25      H      -3.6277609656     0.7730808539    -2.2842234148
   26      H      -4.3056837822     0.1137187249     1.8514229099
   27      H      -6.6193466349    -0.1885794783     0.8549054219
   28      H      -6.1075653038     1.3447206548     0.0843032559
   29      H      -6.5163763964    -1.2973623589    -1.2522209240
   30      H      -5.9429269364     0.2002495683    -2.0487457100
   31      H      -4.1357789113    -1.9485169190    -1.7551487292
   32      O       0.9363067272    -0.9405957385     1.2675394848
   33      C       3.7404731564    -2.5390935013     2.2559741476
   34      C       4.4703329163     0.2609960231    -0.9489573522
   35      C       4.3927404189     1.2589125175    -2.1726103784
   36      C       3.4584027586     2.3841964190    -1.5913383199
   37      C       3.1488050338     1.8066110135    -0.1548094730
   38      O       4.4169040784     1.1487395718     0.2342414736
   39      H       2.7741823360    -0.8907566632    -1.8670443383
   40      H       1.3533865219     0.8387147583    -1.0706048141
   41      H       4.2912068710    -3.4077600198     1.8412766799
   42      H       5.3757205911    -0.3753306064    -0.9157544323
   43      H       5.3935485466     1.6488658637    -2.4171142293
   44      H       3.9705961432     0.7792320878    -3.0701922446
   45      H       3.9869783246     3.3476307161    -1.5132643305
   46      H       2.5420041538     2.5283547274    -2.1858253799
   47      H       2.8404575138     2.5480407177     0.6068470056
   48      H       2.7045887729    -2.8583698963     2.4933630917
   49      H       4.2398655460    -2.1861749167     3.1768128678
   50      H      -0.3488796990    -3.1629571465    -1.3372563896
   51      H       0.3710062053    -1.8621633968    -0.2852550942
   52      H       0.1923938483    -1.5971373128    -2.0817816317
   53      H      -1.4057213139     2.4071999682     3.6525421197
   54      H      -0.6704312066     2.9628080243     2.0997342095
   55      H       0.6248595948     1.2470142209     3.8397985078
   56      H      -0.1625337480     0.0127200892     2.7692768508
 ----------------------------------------------------------------

    9   -1510.2923914062      4.47E-09 Convergence criterion met
 Total energy in the final basis set = -1510.29239141
 Final energy is   -1510.29239140617
 **  OPTIMIZATION CONVERGED  **

                    Orbital Energies (a.u.)
 --------------------------------------------------------------

 Alpha MOs
 -- Occupied --
-18.946 -18.940 -18.924 -18.912 -18.889 -18.886 -18.883 -18.882
-18.864 -18.853 -10.112 -10.109 -10.090 -10.085 -10.084 -10.076
-10.059 -10.056 -10.056 -10.055 -10.054 -10.041 -10.034 -10.031
-10.030 -10.025 -10.019 -10.018 -10.016 -10.014  -1.026  -1.015
 -1.000  -0.992  -0.967  -0.965  -0.950  -0.942  -0.926  -0.917
 -0.762  -0.759  -0.728  -0.719  -0.714  -0.704  -0.695  -0.652
 -0.640  -0.621  -0.594  -0.580  -0.544  -0.542  -0.535  -0.533
 -0.513  -0.510  -0.486  -0.472  -0.466  -0.459  -0.448  -0.436
 -0.432  -0.428  -0.426  -0.408  -0.406  -0.404  -0.402  -0.400
 -0.390  -0.387  -0.378  -0.364  -0.359  -0.355  -0.346  -0.342
 -0.337  -0.335  -0.332  -0.327  -0.326  -0.320  -0.316  -0.314
 -0.306  -0.304  -0.300  -0.296  -0.294  -0.286  -0.282  -0.271
 -0.271  -0.262  -0.253  -0.243  -0.232  -0.230  -0.228  -0.194
 -0.178  -0.168  -0.166  -0.161  -0.148  -0.142  -0.141  -0.139
 -0.138

          Ground-State Mulliken Net Atomic Charges

     Atom                 Charge (a.u.)
  ----------------------------------------
      1 O                    -0.215055
      2 C                     0.209571
      3 C                    -0.080888
      4 C                    -0.078367
      5 C                     0.234021
      6 O                    -0.168780
      7 C                    -0.055062
      8 C                    -0.049452
      9 O                    -0.170915
     10 C                     0.217426
     11 C                    -0.078000
     12 C                    -0.080332
     13 C                     0.210737
     14 O                    -0.227329
     15 O                    -0.169693
     16 O                    -0.172758
     17 O                    -0.212758
     18 C                    -0.148649
     19 C                     0.024684
     20 C                    -0.143556
     21 C                    -0.144882
     22 C                     0.027475
     23 O                    -0.184677
     24 H                     0.084725
     25 H                     0.081774
     26 H                     0.088452
     27 H                     0.077797
     28 H                     0.072167
     29 H                     0.077628
     30 H                     0.072888
     31 H                     0.085922
     32 O                    -0.217695
     33 C                    -0.128623
     34 C                     0.026130
     35 C                    -0.144110
     36 C                    -0.143703
     37 C                     0.024232
     38 O                    -0.187793
     39 H                     0.085776
     40 H                     0.102160
     41 H                     0.088136
     42 H                     0.082456
     43 H                     0.076685
     44 H                     0.074943
     45 H                     0.076311
     46 H                     0.076456
     47 H                     0.090110
     48 H                     0.090367
     49 H                     0.088345
     50 H                     0.080957
     51 H                     0.105498
     52 H                     0.087232
     53 H                     0.092464
     54 H                     0.092811
     55 H                     0.088602
     56 H                     0.108143
  ----------------------------------------
  Sum of atomic charges =    -0.000000

                    Cartesian Multipole Moments
 -----------------------------------------------------------------
    Charge (ESU x 10^10)
                -0.0000
    Dipole Moment (Debye)
         X      -1.6129      Y       2.6984      Z       1.0241
       Tot       3.3063
    Quadrupole Moments (Debye-Ang)
        XX    -150.6197     XY      -6.3279     YY    -160.7077
        XZ      -0.5016     YZ       1.6655     ZZ    -152.6035

 Total job time:  105.14s(wall), 5009.44s(cpu)
        *  Thank you very much for using Q-Chem.  Have a nice day.  *
