 Q-Chem 5.0, Q-Chem, Inc., Pleasanton, CA (2017)
 Q-Chem 5.0.1 for Intel X86 EM64T Linux

User input:
--------------------------------------------------------------
$molecule
0  1
O 4.4347810695 -2.5282218651 -0.6359484963
C 4.1862698487 -1.3954755904 -0.1698462741
C 3.8547076685 -0.0951597352 -0.9814070552
C 2.4014345929 0.479316274 -0.7122465224
C 1.5711658261 -0.4061989644 0.2792560396
O 0.6778337535 0.41666761 1.0149429556
C -0.1131942184 -0.3892269061 1.9790325553
C -1.0736296812 0.5774887846 2.7532677158
O -2.3690452028 0.852691654 2.0895400898
C -2.2495415671 1.294204095 0.732355735
C -3.6228861645 1.0826204322 -0.0067177388
C -3.5395240469 0.1904587288 -1.316695925
C -2.2240525162 -0.6160143243 -1.5940283157
O -1.640519942 -0.6810742153 -2.7001879821
O 4.2297491536 -1.0694278984 1.2263435052
O -1.8836107041 -1.4280951483 -0.4616105674
O -1.2254892745 1.7980990352 0.2252767073
C -0.9250931564 -2.4924290571 -0.8676305712
C -4.7340276978 0.3126242982 0.8271522917
C -6.1414830774 0.6924378727 0.2221682133
C -6.1030957496 -0.0974611768 -1.1381814754
C -4.7153929691 -0.8452201179 -1.0221883026
O -4.5666758004 -1.1037461552 0.4263346461
H -3.9863735864 2.0889163839 -0.2882381739
H -3.7392585594 0.79478892 -2.2191729661
H -4.6313631707 0.4207342167 1.9233480236
H -6.95020368 0.3290374751 0.8761296071
H -6.2597544225 1.7790031131 0.0836914509
H -6.9272012072 -0.8250373117 -1.2092821357
H -6.1425474914 0.5663077773 -2.0167480821
H -4.6439404731 -1.7896775958 -1.5958398058
O 1.6303083488 -1.6556984835 0.3914913441
C 4.4485058931 -2.3006006206 2.0171085677
C 4.7388977823 1.1464686815 -0.5253730807
C 4.630091946 2.264388062 -1.6370916766
C 3.1883320523 2.8310485621 -1.359764422
C 2.7323843323 1.9239146906 -0.1503758311
O 3.9828931477 1.7127956024 0.6147932186
H 3.9985495618 -0.3278780895 -2.0508455544
H 1.8231675965 0.5427264634 -1.6538278905
H 5.3731538635 -2.8295659029 1.7086574359
H 5.7696186586 0.886322796 -0.2161317794
H 5.4032506195 3.0342018504 -1.4853696764
H 4.7379352327 1.8507265903 -2.6523993413
H 3.221961711 3.8888370873 -1.0541093568
H 2.5162227203 2.734808012 -2.2273826743
H 1.9368492904 2.3441643927 0.4944959313
H 3.5917831634 -2.9981369936 1.9133581654
H 4.5383525803 -1.977229278 3.0704106126
H -1.3813223255 -3.4698804327 -0.6191252659
H 0.0323241184 -2.3667846094 -0.314491243
H -0.7374288744 -2.418523588 -1.9565590098
H -1.3555425504 0.1099119697 3.7185578169
H -0.5284218223 1.5256437826 2.9658583306
H 0.5597601943 -0.9068328647 2.696418648
H -0.7244380655 -1.1464825587 1.43938545
$end

$rem
JOBTYPE                   OPT
METHOD                    B3LYP
DFT_D                     d3_op
BASIS                     STO-3G
GEOM_OPT_MAX_CYCLES       100
GEOM_OPT_TOL_GRADIENT     300
GEOM_OPT_TOL_DISPLACEMENT 1200
GEOM_OPT_TOL_ENERGY       100
SYMMETRY                  False
THRESH                    12
SCF_CONVERGENCE           8
MAX_SUB_FILE_NUM          128
MEM_STATIC                400
MEM_TOTAL                 4000
$end
--------------------------------------------------------------

   16   -1510.2806835716      5.52E-09 Convergence criterion met
 Total energy in the final basis set = -1510.28068357
   14   -1510.2773830377      7.99E-09 Convergence criterion met
 Total energy in the final basis set = -1510.27738304
   14   -1510.2807757110      2.43E-09 Convergence criterion met
 Total energy in the final basis set = -1510.28077571
   15   -1510.2718869251      2.27E-09 Convergence criterion met
 Total energy in the final basis set = -1510.27188693
   15   -1510.2827452185      3.12E-09 Convergence criterion met
 Total energy in the final basis set = -1510.28274522
   14   -1510.2830927858      5.61E-09 Convergence criterion met
 Total energy in the final basis set = -1510.28309279
   13   -1510.2838673978      6.87E-09 Convergence criterion met
 Total energy in the final basis set = -1510.28386740
   14   -1510.2842674123      8.30E-09 Convergence criterion met
   12   -1510.2970789110      9.44E-09 Convergence criterion met
 Total energy in the final basis set = -1510.29707891
   12   -1510.2971126108      3.41E-09 Convergence criterion met
 Total energy in the final basis set = -1510.29711261
   11   -1510.2971242280      8.34E-09 Convergence criterion met
 Total energy in the final basis set = -1510.29712423
   11   -1510.2971203440      3.87E-09 Convergence criterion met
 Total energy in the final basis set = -1510.29712034
   11   -1510.2971157456      3.34E-09 Convergence criterion met
 Total energy in the final basis set = -1510.29711575
   11   -1510.2971067978      5.31E-09 Convergence criterion met
 Total energy in the final basis set = -1510.29710680

             Standard Nuclear Orientation (Angstroms)
    I     Atom           X                Y                Z
 ----------------------------------------------------------------
    1      O       5.1693740904    -1.8417840810     0.9649766766
    2      C       4.5504172485    -0.7639846064     0.8242202992
    3      C       3.9625585331    -0.1964149294    -0.5218223648
    4      C       2.4357211891    -0.5531522554    -0.7524390117
    5      C       1.8090634712    -1.4287645888     0.3780629502
    6      O       0.5422500293    -1.9216715296    -0.0876345423
    7      C      -0.1436217100    -2.7217707719     0.9508979950
    8      C      -0.7892888378    -1.8588918136     2.1012991415
    9      O      -2.0612284870    -1.2013729153     1.7157209459
   10      C      -1.8135695855     0.0538052429     1.0802508468
   11      C      -3.1603661002     0.8246826575     0.8335990705
   12      C      -3.2662277771     1.4306489523    -0.6315617590
   13      C      -2.0824404476     0.9962726718    -1.5611252909
   14      O      -1.2599859413     1.7375644659    -2.1441565956
   15      O       4.3463605951     0.1903982260     1.8721270466
   16      O      -2.1075917653    -0.4284907919    -1.6498665712
   17      O      -0.6668161638     0.4886474973     0.8325497143
   18      C      -0.9533573752    -0.9345602528    -2.4315633994
   19      C      -4.4683803735    -0.0706703407     0.8935281940
   20      C      -5.7055631238     0.8916298485     1.0910238711
   21      C      -5.8205354290     1.5328607790    -0.3419362325
   22      C      -4.6466861395     0.7966376639    -1.1024229453
   23      O      -4.6289634656    -0.5534939178    -0.4967282681
   24      H      -3.2029887367     1.6356111518     1.5852323487
   25      H      -3.3017449768     2.5337136134    -0.6131733390
   26      H      -4.4036920915    -0.9227086116     1.5967194224
   27      H      -6.6062770659     0.3109210643     1.3463831278
   28      H      -5.5309718054     1.6389409485     1.8812841573
   29      H      -6.7892411680     1.3007167468    -0.8119840187
   30      H      -5.6850398354     2.6262376156    -0.3314390218
   31      H      -4.7674201880     0.7266871271    -2.2008231334
   32      O       2.2731244336    -1.6923623538     1.5084234828
   33      C       4.8121933922    -0.3765116913     3.1565049546
   34      C       3.8961252272     1.3896035326    -0.5480216806
   35      C       3.6383188272     1.8642785794    -2.0347470300
   36      C       2.1090266318     1.5294840552    -2.2044519431
   37      C       1.7803006849     0.9014211711    -0.7959916971
   38      O       2.6179866063     1.6834366289     0.1373999834
   39      H       4.5788053936    -0.5986275240    -1.3454524717
   40      H       2.2853457472    -1.0792328102    -1.7121265911
   41      H       5.8790889621    -0.6769235264     3.1111170764
   42      H       4.7382831097     1.8896927124    -0.0324448901
   43      H       3.8294153079     2.9449568574    -2.1299518621
   44      H       4.2739509645     1.3284274232    -2.7578562252
   45      H       1.5039900653     2.4357354658    -2.3675265972
   46      H       1.9168432214     0.8265973502    -3.0303284665
   47      H       0.7188779608     0.9275402127    -0.4713510405
   48      H       4.2072117717    -1.2613063086     3.4421001357
   49      H       4.6811770572     0.4220043761     3.9096410729
   50      H      -1.3334106437    -1.6637101153    -3.1718080345
   51      H      -0.2574350024    -1.4282906366    -1.7158535179
   52      H      -0.4493839570    -0.0917111748    -2.9436682165
   53      H      -1.0564247731    -2.5396401048     2.9353832395
   54      H      -0.0479659486    -1.1118754366     2.4566566803
   55      H       0.5701817563    -3.4342682630     1.4186802826
   56      H      -0.9347390364    -3.2858625140     0.4162181370
 ----------------------------------------------------------------

    9   -1510.2971061862      7.32E-09 Convergence criterion met
 Total energy in the final basis set = -1510.29710619
 Final energy is   -1510.29710618620
 **  OPTIMIZATION CONVERGED  **

                    Orbital Energies (a.u.)
 --------------------------------------------------------------

 Alpha MOs
 -- Occupied --
-18.947 -18.946 -18.924 -18.918 -18.889 -18.888 -18.883 -18.876
-18.869 -18.854 -10.111 -10.109 -10.094 -10.085 -10.084 -10.081
-10.061 -10.060 -10.050 -10.049 -10.042 -10.041 -10.037 -10.037
-10.034 -10.027 -10.021 -10.020 -10.010 -10.007  -1.027  -1.018
 -1.003  -0.994  -0.970  -0.958  -0.948  -0.945  -0.929  -0.919
 -0.765  -0.756  -0.729  -0.721  -0.711  -0.703  -0.693  -0.649
 -0.647  -0.624  -0.597  -0.580  -0.547  -0.539  -0.535  -0.528
 -0.515  -0.506  -0.488  -0.476  -0.469  -0.455  -0.444  -0.441
 -0.433  -0.424  -0.421  -0.418  -0.411  -0.403  -0.402  -0.398
 -0.395  -0.382  -0.377  -0.363  -0.359  -0.357  -0.353  -0.349
 -0.341  -0.338  -0.332  -0.331  -0.324  -0.319  -0.313  -0.312
 -0.308  -0.305  -0.296  -0.294  -0.293  -0.292  -0.278  -0.271
 -0.270  -0.258  -0.254  -0.240  -0.238  -0.234  -0.222  -0.203
 -0.176  -0.168  -0.162  -0.160  -0.158  -0.149  -0.143  -0.136
 -0.132

          Ground-State Mulliken Net Atomic Charges

     Atom                 Charge (a.u.)
  ----------------------------------------
      1 O                    -0.223230
      2 C                     0.211830
      3 C                    -0.081222
      4 C                    -0.080066
      5 C                     0.220814
      6 O                    -0.171363
      7 C                    -0.048326
      8 C                    -0.051125
      9 O                    -0.168094
     10 C                     0.219997
     11 C                    -0.077034
     12 C                    -0.078935
     13 C                     0.208862
     14 O                    -0.216851
     15 O                    -0.166490
     16 O                    -0.172140
     17 O                    -0.217657
     18 C                    -0.152380
     19 C                     0.023914
     20 C                    -0.143926
     21 C                    -0.144327
     22 C                     0.026724
     23 O                    -0.185404
     24 H                     0.086023
     25 H                     0.085000
     26 H                     0.091387
     27 H                     0.077867
     28 H                     0.072919
     29 H                     0.077980
     30 H                     0.073996
     31 H                     0.083535
     32 O                    -0.208091
     33 C                    -0.127045
     34 C                     0.026489
     35 C                    -0.145247
     36 C                    -0.143546
     37 C                     0.016787
     38 O                    -0.187099
     39 H                     0.081588
     40 H                     0.084101
     41 H                     0.085759
     42 H                     0.084289
     43 H                     0.076248
     44 H                     0.070511
     45 H                     0.084347
     46 H                     0.069666
     47 H                     0.107547
     48 H                     0.090773
     49 H                     0.087103
     50 H                     0.079084
     51 H                     0.104897
     52 H                     0.091543
     53 H                     0.092639
     54 H                     0.102090
     55 H                     0.095701
     56 H                     0.097587
  ----------------------------------------
  Sum of atomic charges =    -0.000000

                    Cartesian Multipole Moments
 -----------------------------------------------------------------
    Charge (ESU x 10^10)
                -0.0000
    Dipole Moment (Debye)
         X      -2.2696      Y      -0.2659      Z       0.4610
       Tot       2.3311
    Quadrupole Moments (Debye-Ang)
        XX    -157.5821     XY      -1.1830     YY    -160.6581
        XZ      -7.2956     YZ      -0.2533     ZZ    -151.7119

 Total job time:  126.60s(wall), 6039.81s(cpu)
        *  Thank you very much for using Q-Chem.  Have a nice day.  *
