 Q-Chem 5.0, Q-Chem, Inc., Pleasanton, CA (2017)
 Q-Chem 5.0.1 for Intel X86 EM64T Linux

User input:
--------------------------------------------------------------
$molecule
0  1
O -3.94934 -3.66094 2.70899
C -3.26408 -4.56952 2.26188
C -3.36658 -6.02376 2.66595
C -3.78311 -7.02752 1.57837
C -3.87805 -6.49185 0.16694
O -3.57128 -7.47907 -0.72565
C -3.62237 -7.0423 -2.08795
C -3.2695 -8.19446 -3.02291
O -4.44463 -8.96834 -3.31111
C -5.14438 -9.39097 -2.22904
C -6.56509 -9.77981 -2.56225
C -7.64443 -9.03544 -1.76274
C -7.18377 -7.79154 -1.02978
O -7.47027 -7.50092 0.12261
O -2.29709 -4.2633 1.35385
O -6.7429 -6.78599 -1.82535
O -4.64512 -9.66101 -1.14575
C -6.95317 -5.44583 -1.55948
C -7.05515 -9.49572 -4.00571
C -8.21957 -10.4267 -4.34776
C -9.31697 -9.84109 -3.48332
C -8.58978 -8.6226 -2.90678
O -7.6945 -8.24671 -3.9264
H -6.61781 -10.87948 -2.39527
H -8.14214 -9.68903 -1.01225
H -6.26842 -9.59739 -4.78343
H -8.47851 -10.24649 -5.41605
H -8.0249 -11.51059 -4.19913
H -10.15277 -9.52177 -4.14482
H -9.69894 -10.5092 -2.68126
H -9.319 -7.84592 -2.58611
O -4.20282 -5.35407 -0.14532
C -2.04496 -2.99217 0.88211
C -2.0141 -6.58288 3.1277
C -2.232 -7.78733 4.03926
C -2.69306 -8.81542 3.0319
C -2.57957 -8.00747 1.73337
O -1.48254 -7.15881 1.96355
H -4.09711 -6.05029 3.50618
H -4.7344 -7.56427 1.78876
H -1.75856 -2.32241 1.72093
H -1.37891 -5.82368 3.63531
H -1.23769 -8.09634 4.43409
H -2.92736 -7.60726 4.88726
H -1.95541 -9.64915 3.02459
H -3.71589 -9.219 3.19347
H -2.46097 -8.72603 0.89526
H -2.9443 -2.5894 0.36901
H -1.20779 -3.03375 0.15562
H -6.4478 -4.83354 -2.33407
H -6.56971 -5.16852 -0.55861
H -8.04168 -5.22698 -1.58893
H -2.92585 -7.77948 -3.99431
H -2.44699 -8.81504 -2.60375
H -2.80685 -6.29242 -2.20566
H -4.54902 -6.54526 -2.40513
$end

$opt
CONSTRAINT
tors           1           2           3           4    +116.839
tors           3           4           5           6    +149.032
tors           4           5           6           7    -179.231
tors           5           6           7           8    -180.000
tors           6           7           8           9     +85.993
tors           7           8           9          10     -52.255
tors           8           9          10          11    +160.788
tors           9          10          11          12    -123.650
tors          11          12          13          14    -134.937
ENDCONSTRAINT
$end

$rem
JOBTYPE                   OPT
METHOD                    B3LYP
DFT_D                     d3_op
BASIS                     STO-3G
GEOM_OPT_MAX_CYCLES       100
GEOM_OPT_TOL_GRADIENT     300
GEOM_OPT_TOL_DISPLACEMENT 1200
GEOM_OPT_TOL_ENERGY       100
SYMMETRY                  False
THRESH                    12
SCF_CONVERGENCE           8
MAX_SUB_FILE_NUM          128
MEM_STATIC                400
MEM_TOTAL                 4000
$end
--------------------------------------------------------------

   15   -1510.1484363807      6.76E-09 Convergence criterion met
 Total energy in the final basis set = -1510.14843638
   14   -1510.2175803586      5.19E-09 Convergence criterion met
 Total energy in the final basis set = -1510.21758036
   14   -1510.2524968030      5.57E-09 Convergence criterion met
 Total energy in the final basis set = -1510.25249680
   14   -1510.2655634579      9.71E-09 Convergence criterion met
 Total energy in the final basis set = -1510.26556346
   14   -1510.2741675703      3.29E-09 Convergence criterion met
 Total energy in the final basis set = -1510.27416757
   14   -1510.2764564830      2.94E-09 Convergence criterion met
 Total energy in the final basis set = -1510.27645648
   13   -1510.2775163650      4.60E-09 Convergence criterion met
 Total energy in the final basis set = -1510.27751636
   13   -1510.2780475087      5.77E-09 Convergence criterion met
   11   -1510.2809870365      5.20E-09 Convergence criterion met
 Total energy in the final basis set = -1510.28098704
   11   -1510.2809949564      5.04E-09 Convergence criterion met
 Total energy in the final basis set = -1510.28099496
   11   -1510.2810092608      2.81E-09 Convergence criterion met
 Total energy in the final basis set = -1510.28100926
   10   -1510.2810186434      8.77E-09 Convergence criterion met
 Total energy in the final basis set = -1510.28101864
    9   -1510.2810232204      6.31E-09 Convergence criterion met
 Total energy in the final basis set = -1510.28102322
    9   -1510.2810247087      6.70E-09 Convergence criterion met
 Total energy in the final basis set = -1510.28102471

             Standard Nuclear Orientation (Angstroms)
    I     Atom           X                Y                Z
 ----------------------------------------------------------------
    1      O       4.4347810695    -2.5282218651    -0.6359484963
    2      C       4.1862698487    -1.3954755904    -0.1698462741
    3      C       3.8547076685    -0.0951597352    -0.9814070552
    4      C       2.4014345929     0.4793162740    -0.7122465224
    5      C       1.5711658261    -0.4061989644     0.2792560396
    6      O       0.6778337535     0.4166676100     1.0149429556
    7      C      -0.1131942184    -0.3892269061     1.9790325553
    8      C      -1.0736296812     0.5774887846     2.7532677158
    9      O      -2.3690452028     0.8526916540     2.0895400898
   10      C      -2.2495415671     1.2942040950     0.7323557350
   11      C      -3.6228861645     1.0826204322    -0.0067177388
   12      C      -3.5395240469     0.1904587288    -1.3166959250
   13      C      -2.2240525162    -0.6160143243    -1.5940283157
   14      O      -1.6405199420    -0.6810742153    -2.7001879821
   15      O       4.2297491536    -1.0694278984     1.2263435052
   16      O      -1.8836107041    -1.4280951483    -0.4616105674
   17      O      -1.2254892745     1.7980990352     0.2252767073
   18      C      -0.9250931564    -2.4924290571    -0.8676305712
   19      C      -4.7340276978     0.3126242982     0.8271522917
   20      C      -6.1414830774     0.6924378727     0.2221682133
   21      C      -6.1030957496    -0.0974611768    -1.1381814754
   22      C      -4.7153929691    -0.8452201179    -1.0221883026
   23      O      -4.5666758004    -1.1037461552     0.4263346461
   24      H      -3.9863735864     2.0889163839    -0.2882381739
   25      H      -3.7392585594     0.7947889200    -2.2191729661
   26      H      -4.6313631707     0.4207342167     1.9233480236
   27      H      -6.9502036800     0.3290374751     0.8761296071
   28      H      -6.2597544225     1.7790031131     0.0836914509
   29      H      -6.9272012072    -0.8250373117    -1.2092821357
   30      H      -6.1425474914     0.5663077773    -2.0167480821
   31      H      -4.6439404731    -1.7896775958    -1.5958398058
   32      O       1.6303083488    -1.6556984835     0.3914913441
   33      C       4.4485058931    -2.3006006206     2.0171085677
   34      C       4.7388977823     1.1464686815    -0.5253730807
   35      C       4.6300919460     2.2643880620    -1.6370916766
   36      C       3.1883320523     2.8310485621    -1.3597644220
   37      C       2.7323843323     1.9239146906    -0.1503758311
   38      O       3.9828931477     1.7127956024     0.6147932186
   39      H       3.9985495618    -0.3278780895    -2.0508455544
   40      H       1.8231675965     0.5427264634    -1.6538278905
   41      H       5.3731538635    -2.8295659029     1.7086574359
   42      H       5.7696186586     0.8863227960    -0.2161317794
   43      H       5.4032506195     3.0342018504    -1.4853696764
   44      H       4.7379352327     1.8507265903    -2.6523993413
   45      H       3.2219617110     3.8888370873    -1.0541093568
   46      H       2.5162227203     2.7348080120    -2.2273826743
   47      H       1.9368492904     2.3441643927     0.4944959313
   48      H       3.5917831634    -2.9981369936     1.9133581654
   49      H       4.5383525803    -1.9772292780     3.0704106126
   50      H      -1.3813223255    -3.4698804327    -0.6191252659
   51      H       0.0323241184    -2.3667846094    -0.3144912430
   52      H      -0.7374288744    -2.4185235880    -1.9565590098
   53      H      -1.3555425504     0.1099119697     3.7185578169
   54      H      -0.5284218223     1.5256437826     2.9658583306
   55      H       0.5597601943    -0.9068328647     2.6964186480
   56      H      -0.7244380655    -1.1464825587     1.4393854500
 ----------------------------------------------------------------

    8   -1510.2810256810      8.32E-09 Convergence criterion met
 Total energy in the final basis set = -1510.28102568
 Final energy is   -1510.28102568102
 **  OPTIMIZATION CONVERGED  **

                    Orbital Energies (a.u.)
 --------------------------------------------------------------

 Alpha MOs
 -- Occupied --
-18.946 -18.933 -18.928 -18.922 -18.889 -18.883 -18.880 -18.879
-18.873 -18.863 -10.107 -10.104 -10.097 -10.089 -10.082 -10.077
-10.062 -10.058 -10.056 -10.055 -10.053 -10.039 -10.039 -10.038
-10.036 -10.031 -10.022 -10.020 -10.016 -10.015  -1.023  -1.010
 -1.006  -0.999  -0.971  -0.965  -0.943  -0.941  -0.931  -0.925
 -0.764  -0.759  -0.729  -0.721  -0.715  -0.705  -0.696  -0.652
 -0.650  -0.620  -0.598  -0.581  -0.545  -0.542  -0.538  -0.533
 -0.514  -0.513  -0.487  -0.475  -0.468  -0.462  -0.444  -0.435
 -0.434  -0.428  -0.425  -0.415  -0.412  -0.406  -0.403  -0.402
 -0.391  -0.384  -0.373  -0.365  -0.362  -0.358  -0.349  -0.345
 -0.343  -0.342  -0.334  -0.331  -0.326  -0.321  -0.319  -0.310
 -0.309  -0.305  -0.301  -0.299  -0.294  -0.291  -0.282  -0.275
 -0.270  -0.258  -0.251  -0.243  -0.241  -0.234  -0.230  -0.188
 -0.174  -0.170  -0.165  -0.162  -0.155  -0.148  -0.143  -0.141
 -0.139

          Ground-State Mulliken Net Atomic Charges

     Atom                 Charge (a.u.)
  ----------------------------------------
      1 O                    -0.215020
      2 C                     0.211317
      3 C                    -0.080799
      4 C                    -0.076804
      5 C                     0.221597
      6 O                    -0.158969
      7 C                    -0.052929
      8 C                    -0.044441
      9 O                    -0.175183
     10 C                     0.211431
     11 C                    -0.078932
     12 C                    -0.077828
     13 C                     0.207476
     14 O                    -0.215121
     15 O                    -0.171474
     16 O                    -0.175363
     17 O                    -0.203925
     18 C                    -0.152992
     19 C                     0.023676
     20 C                    -0.143679
     21 C                    -0.144619
     22 C                     0.026398
     23 O                    -0.186719
     24 H                     0.083454
     25 H                     0.086138
     26 H                     0.092813
     27 H                     0.077759
     28 H                     0.073030
     29 H                     0.078151
     30 H                     0.074121
     31 H                     0.082232
     32 O                    -0.221187
     33 C                    -0.128790
     34 C                     0.026226
     35 C                    -0.144323
     36 C                    -0.143575
     37 C                     0.024153
     38 O                    -0.188452
     39 H                     0.084475
     40 H                     0.090599
     41 H                     0.087849
     42 H                     0.082784
     43 H                     0.076827
     44 H                     0.073598
     45 H                     0.077472
     46 H                     0.075059
     47 H                     0.095474
     48 H                     0.089812
     49 H                     0.087057
     50 H                     0.081339
     51 H                     0.100965
     52 H                     0.095915
     53 H                     0.093874
     54 H                     0.091106
     55 H                     0.091434
     56 H                     0.105512
  ----------------------------------------
  Sum of atomic charges =    -0.000000

                    Cartesian Multipole Moments
 -----------------------------------------------------------------
    Charge (ESU x 10^10)
                -0.0000
    Dipole Moment (Debye)
         X      -1.9445      Y       1.4382      Z       0.8493
       Tot       2.5634
    Quadrupole Moments (Debye-Ang)
        XX    -150.2150     XY      -0.2412     YY    -162.9922
        XZ       1.9126     YZ      -5.3078     ZZ    -155.4924

 Total job time:  83.98s(wall), 3999.31s(cpu)
        *  Thank you very much for using Q-Chem.  Have a nice day.  *
