 Q-Chem 5.0, Q-Chem, Inc., Pleasanton, CA (2017)
 Q-Chem 5.0.1 for Intel X86 EM64T Linux

User input:
--------------------------------------------------------------
$molecule
0  1
O -4.4543793692 -2.5056316597 1.2689388753
C -4.4378984284 -1.5396221813 0.4757921281
C -4.5157879963 -0.0155129593 0.8546268438
C -3.1894895691 0.8014801409 0.5642586357
C -2.0438483638 -0.091047827 -0.0256878732
O -1.0694222138 0.7449486774 -0.6457481649
C 0.0167849352 -0.0896342169 -1.2145352905
C 1.05516754 0.8820356901 -1.8808916102
O 2.319715884 1.1783009685 -1.1606396582
C 2.2820759144 1.0269837786 0.2585427023
C 3.75676605 1.103698801 0.8078271061
C 4.3896082586 -0.3103504224 1.1658963263
C 3.4695701326 -1.5671605812 1.0216212868
O 3.3635593648 -2.4986203277 1.849422225
O -4.4900410827 -1.6645303979 -0.9532332983
O 2.8036597416 -1.5552919268 -0.2480225335
O 1.2538983238 0.9010058236 0.9584408088
C 2.05393587 -2.8229440109 -0.4279711363
C 4.7921255994 1.6228813658 -0.2753864704
C 6.1451113306 2.001031977 0.4506678237
C 6.7554299074 0.5769864445 0.7257939492
C 5.6178137792 -0.3520909208 0.1471247195
O 5.129228545 0.3939098211 -1.0313491547
H 3.7400893093 1.7461583469 1.7066881925
H 4.7523357864 -0.3145283027 2.2090365913
H 4.3885207969 2.3965273806 -0.9553865565
H 6.7878954217 2.5952940169 -0.2179216386
H 5.9720714269 2.5740479562 1.3756446075
H 7.6945567732 0.424358739 0.1699537863
H 6.9430151811 0.3904773033 1.7952217865
H 5.9400402586 -1.3710802409 -0.1429959439
O -1.9566142192 -1.3388183194 0.0352911378
C -4.3711707193 -3.0886158387 -1.3334853581
C -5.548869199 0.7748893367 -0.058479171
C -5.8712764956 2.1576603771 0.6357023709
C -4.552558153 2.9639056042 0.3369126847
C -3.7165665682 1.8901320438 -0.4647450371
O -4.743307278 1.1597617571 -1.2407695251
H -4.7874051768 0.0409079038 1.923237277
H -2.8051282363 1.2806461318 1.4840409437
H -5.1575773936 -3.7095289329 -0.8576342915
H -6.4322846902 0.1846067841 -0.3692221916
H -6.7487765566 2.6301873924 0.1660630613
H -6.0662943916 2.0439356813 1.7140620542
H -4.7515208181 3.8460041411 -0.2923854808
H -4.0359474885 3.2921071099 1.2528765225
H -2.9317042629 2.2950402185 -1.1322523349
H -3.3794750104 -3.4970138752 -1.0493000133
H -4.4847718721 -3.123288279 -2.4327136787
H 1.6353521086 -2.787644273 -1.4502226549
H 1.2290957256 -2.9211364652 0.3074707229
H 2.7195200484 -3.7040687034 -0.329174716
H 1.3896046762 0.4529172356 -2.8480747858
H 0.5291634746 1.8410078432 -2.0946917321
H -0.4040881615 -0.7551152785 -2.0010710976
H 0.4874064345 -0.7285503748 -0.4431666403
$end

$rem
JOBTYPE                   OPT
METHOD                    B3LYP
DFT_D                     d3_op
BASIS                     STO-3G
GEOM_OPT_MAX_CYCLES       100
GEOM_OPT_TOL_GRADIENT     300
GEOM_OPT_TOL_DISPLACEMENT 1200
GEOM_OPT_TOL_ENERGY       100
SYMMETRY                  False
THRESH                    12
SCF_CONVERGENCE           8
MAX_SUB_FILE_NUM          128
MEM_STATIC                400
MEM_TOTAL                 4000
$end
--------------------------------------------------------------

   16   -1510.2757158454      5.84E-09 Convergence criterion met
 Total energy in the final basis set = -1510.27571585
   15   -1510.2776994669      2.30E-09 Convergence criterion met
 Total energy in the final basis set = -1510.27769947
   14   -1510.2792866249      7.55E-09 Convergence criterion met
 Total energy in the final basis set = -1510.27928662
   13   -1510.2805223556      7.54E-09 Convergence criterion met
 Total energy in the final basis set = -1510.28052236
   13   -1510.2825840021      9.00E-09 Convergence criterion met
 Total energy in the final basis set = -1510.28258400
   14   -1510.2823988352      2.53E-09 Convergence criterion met
 Total energy in the final basis set = -1510.28239884
   14   -1510.2839802152      5.49E-09 Convergence criterion met
 Total energy in the final basis set = -1510.28398022
   14   -1510.2838565970      3.86E-09 Convergence criterion met
   12   -1510.2924238288      7.47E-09 Convergence criterion met
 Total energy in the final basis set = -1510.29242383
   11   -1510.2924284773      5.63E-09 Convergence criterion met
 Total energy in the final basis set = -1510.29242848
   11   -1510.2924240774      5.51E-09 Convergence criterion met
 Total energy in the final basis set = -1510.29242408
    9   -1510.2924223343      9.05E-09 Convergence criterion met
 Total energy in the final basis set = -1510.29242233
    9   -1510.2924184770      9.96E-09 Convergence criterion met
 Total energy in the final basis set = -1510.29241848
   11   -1510.2924042426      3.88E-09 Convergence criterion met
 Total energy in the final basis set = -1510.29240424

             Standard Nuclear Orientation (Angstroms)
    I     Atom           X                Y                Z
 ----------------------------------------------------------------
    1      O       2.6847129024    -3.0922735567    -0.2529094052
    2      C       3.0734946664    -1.9457835655     0.0595004311
    3      C       3.0721982556    -0.6705818881    -0.8514245562
    4      C       2.1664754940     0.5066942770    -0.2959318136
    5      C       1.3762569056     0.1282833034     1.0016678576
    6      O       1.2700922110     1.2579736576     1.8675044023
    7      C       0.2375102761     1.0183924180     2.9030567421
    8      C      -0.9071927530     2.0947698654     2.7509688010
    9      O      -2.1543270105     1.6479720942     2.0800156600
   10      C      -1.9500402826     1.3434472373     0.6984983399
   11      C      -3.3428135286     1.2071046592    -0.0066503728
   12      C      -3.2765253573     0.4533538017    -1.4006874520
   13      C      -1.8654053060    -0.1553261585    -1.7478482265
   14      O      -1.0631776437     0.2574554587    -2.6162049806
   15      O       3.6373435640    -1.6032696989     1.3314135138
   16      O      -1.6944425755    -1.3366707411    -0.9685199374
   17      O      -0.8316065145     1.2543773971     0.1461414970
   18      C      -0.3777696364    -1.9678387240    -1.2302523869
   19      C      -4.3957020137     0.3163540614     0.7843565465
   20      C      -5.8347730554     0.6741826369     0.2412946130
   21      C      -5.7994999888    -0.0136347428    -1.1736813750
   22      C      -4.3649981268    -0.6781107584    -1.1597411952
   23      O      -4.1649440583    -1.0476771280     0.2615155601
   24      H      -3.7342030423     2.2334990399    -0.1390062359
   25      H      -3.5577358889     1.1308607250    -2.2261148797
   26      H      -4.2764111895     0.3438308341     1.8846685973
   27      H      -6.6084327807     0.2292556339     0.8871205866
   28      H      -6.0031649609     1.7615238170     0.1851322811
   29      H      -6.5810335975    -0.7840631118    -1.2688005804
   30      H      -5.9129486586     0.7074837654    -1.9988663654
   31      H      -4.2525470525    -1.5677335412    -1.8086176864
   32      O       0.8617109077    -0.9892148632     1.2541221050
   33      C       3.5592922987    -2.7674318121     2.2414790995
   34      C       4.4880862716     0.0513255707    -0.8887228198
   35      C       4.4916869766     1.0679745729    -2.0988687353
   36      C       3.6053326358     2.2330587164    -1.5205396458
   37      C       3.2383305180     1.6569196333    -0.0970132838
   38      O       4.4615691764     0.9255153161     0.3053931531
   39      H       2.7456543279    -0.9837817911    -1.8583082808
   40      H       1.3993978056     0.7980391948    -1.0399097168
   41      H       4.0761215883    -3.6540271683     1.8209479534
   42      H       5.3550523865    -0.6359919225    -0.8465426245
   43      H       5.5170031679     1.4076530468    -2.3152173276
   44      H       4.0654224171     0.6238233310    -3.0126334546
   45      H       4.1817267177     3.1666221409    -1.4203002971
   46      H       2.7103430782     2.4331350161    -2.1314318436
   47      H       2.9584325764     2.4055927993     0.6685103524
   48      H       2.5044386910    -3.0402928054     2.4512862161
   49      H       4.0557538164    -2.4569926703     3.1790715004
   50      H      -0.5447217518    -3.0456885272    -1.4147842333
   51      H       0.2561790952    -1.8247819844    -0.3254052970
   52      H       0.0958206069    -1.4963174565    -2.1137496723
   53      H      -1.2464488129     2.4115018654     3.7579183719
   54      H      -0.4803758293     2.9771128356     2.2239059608
   55      H       0.7170192063     1.1353110062     3.8973905638
   56      H      -0.1494635775    -0.0197229217     2.7989041255
 ----------------------------------------------------------------

    9   -1510.2924104349      2.81E-09 Convergence criterion met
 Total energy in the final basis set = -1510.29241043
 Final energy is   -1510.29241043492
 **  OPTIMIZATION CONVERGED  **

                    Orbital Energies (a.u.)
 --------------------------------------------------------------

 Alpha MOs
 -- Occupied --
-18.946 -18.940 -18.924 -18.913 -18.889 -18.886 -18.883 -18.882
-18.864 -18.853 -10.112 -10.109 -10.090 -10.085 -10.084 -10.076
-10.059 -10.056 -10.056 -10.055 -10.054 -10.040 -10.034 -10.031
-10.030 -10.025 -10.019 -10.018 -10.015 -10.014  -1.026  -1.015
 -1.000  -0.992  -0.967  -0.965  -0.950  -0.942  -0.926  -0.917
 -0.762  -0.759  -0.728  -0.719  -0.714  -0.703  -0.695  -0.653
 -0.640  -0.621  -0.594  -0.580  -0.544  -0.542  -0.535  -0.533
 -0.513  -0.510  -0.486  -0.472  -0.466  -0.459  -0.448  -0.436
 -0.432  -0.428  -0.425  -0.409  -0.406  -0.404  -0.402  -0.400
 -0.390  -0.387  -0.378  -0.363  -0.359  -0.355  -0.346  -0.342
 -0.337  -0.335  -0.332  -0.327  -0.326  -0.320  -0.316  -0.314
 -0.306  -0.304  -0.300  -0.295  -0.294  -0.286  -0.282  -0.271
 -0.271  -0.262  -0.253  -0.243  -0.232  -0.230  -0.228  -0.194
 -0.178  -0.168  -0.166  -0.161  -0.148  -0.142  -0.141  -0.139
 -0.138

          Ground-State Mulliken Net Atomic Charges

     Atom                 Charge (a.u.)
  ----------------------------------------
      1 O                    -0.214813
      2 C                     0.209484
      3 C                    -0.080950
      4 C                    -0.078195
      5 C                     0.234153
      6 O                    -0.168366
      7 C                    -0.055236
      8 C                    -0.049499
      9 O                    -0.170895
     10 C                     0.217341
     11 C                    -0.078051
     12 C                    -0.080204
     13 C                     0.210637
     14 O                    -0.227435
     15 O                    -0.169838
     16 O                    -0.172553
     17 O                    -0.212776
     18 C                    -0.148930
     19 C                     0.024655
     20 C                    -0.143445
     21 C                    -0.144953
     22 C                     0.027337
     23 O                    -0.184418
     24 H                     0.084675
     25 H                     0.081756
     26 H                     0.088470
     27 H                     0.077794
     28 H                     0.072142
     29 H                     0.077626
     30 H                     0.072926
     31 H                     0.085830
     32 O                    -0.218039
     33 C                    -0.128615
     34 C                     0.026165
     35 C                    -0.144055
     36 C                    -0.143779
     37 C                     0.024159
     38 O                    -0.187907
     39 H                     0.085723
     40 H                     0.102278
     41 H                     0.087936
     42 H                     0.082428
     43 H                     0.076686
     44 H                     0.074849
     45 H                     0.076312
     46 H                     0.076561
     47 H                     0.090290
     48 H                     0.090536
     49 H                     0.088391
     50 H                     0.080896
     51 H                     0.105768
     52 H                     0.086998
     53 H                     0.092447
     54 H                     0.092753
     55 H                     0.088708
     56 H                     0.108244
  ----------------------------------------
  Sum of atomic charges =    -0.000000

                    Cartesian Multipole Moments
 -----------------------------------------------------------------
    Charge (ESU x 10^10)
                -0.0000
    Dipole Moment (Debye)
         X      -1.4205      Y       2.7353      Z       1.1180
       Tot       3.2786
    Quadrupole Moments (Debye-Ang)
        XX    -151.2986     XY      -7.0511     YY    -159.9189
        XZ      -0.6731     YZ       1.5800     ZZ    -152.3226

 Total job time:  119.13s(wall), 5679.80s(cpu)
        *  Thank you very much for using Q-Chem.  Have a nice day.  *
