 Q-Chem 5.0, Q-Chem, Inc., Pleasanton, CA (2017)
 Q-Chem 5.0.1 for Intel X86 EM64T Linux

User input:
--------------------------------------------------------------
$molecule
0  1
O -3.94934 -3.66094 2.70899
C -3.26408 -4.56952 2.26188
C -3.36658 -6.02376 2.66595
C -3.88276 -7.01237 1.60762
C -4.07032 -6.46649 0.20943
O -4.13016 -7.49575 -0.68637
C -4.30057 -7.05658 -2.03817
C -4.35845 -8.25681 -2.97743
O -5.71883 -8.51402 -3.35962
C -6.66198 -8.0731 -2.49059
C -8.05967 -8.13183 -3.05952
C -8.61876 -6.78583 -3.54323
C -7.604 -5.67438 -3.72115
O -7.74263 -4.52058 -3.34156
O -2.30646 -4.26406 1.34298
O -6.51385 -5.96378 -4.48396
O -6.53911 -8.19834 -1.27796
C -5.55244 -5.04737 -4.85755
C -8.23327 -8.98154 -4.34187
C -9.69172 -9.41911 -4.48326
C -10.349 -8.10258 -4.84228
C -9.11569 -7.19907 -4.94235
O -8.09887 -8.06107 -5.39476
H -8.71058 -8.58122 -2.27383
H -9.44034 -6.39249 -2.90432
H -7.57063 -9.87348 -4.37742
H -9.74602 -10.09424 -5.36746
H -10.12183 -9.93971 -3.60077
H -10.83474 -8.21274 -5.83731
H -11.08207 -7.71821 -4.10037
H -9.32958 -6.318 -5.58746
O -4.23114 -5.29054 -0.09312
C -2.05395 -2.99216 0.87311
C -1.99714 -6.61315 3.02464
C -2.17144 -7.84291 3.91388
C -2.68689 -8.84347 2.90404
C -2.67285 -7.99123 1.63094
O -1.55516 -7.15556 1.8083
H -4.04222 -6.04055 3.55093
H -4.81191 -7.55631 1.88841
H -1.75346 -2.32751 1.71106
H -1.32142 -5.87495 3.5103
H -1.16362 -8.17006 4.2558
H -2.82737 -7.67562 4.79532
H -1.9352 -9.65901 2.80761
H -3.68526 -9.27803 3.12648
H -2.6258 -8.66947 0.75224
H -2.95751 -2.58232 0.37322
H -1.22623 -3.03489 0.13593
H -4.77832 -5.5607 -5.46378
H -5.0696 -4.60465 -3.96089
H -6.01122 -4.2418 -5.4695
H -3.87016 -7.93179 -3.92206
H -3.81373 -9.15848 -2.62497
H -3.34282 -6.54176 -2.28579
H -5.06934 -6.26844 -2.20082
$end

$opt
CONSTRAINT
tors           1           2           3           4    +112.441
tors           3           4           5           6    +161.698
tors           4           5           6           7    -179.695
tors           5           6           7           8    -180.000
tors           6           7           8           9    +102.542
tors           7           8           9          10     -24.787
tors           8           9          10          11    +169.028
tors           9          10          11          12    -101.892
tors          11          12          13          14    -134.937
ENDCONSTRAINT
$end

$rem
JOBTYPE                   OPT
METHOD                    B3LYP
DFT_D                     d3_op
BASIS                     STO-3G
GEOM_OPT_MAX_CYCLES       100
GEOM_OPT_TOL_GRADIENT     300
GEOM_OPT_TOL_DISPLACEMENT 1200
GEOM_OPT_TOL_ENERGY       100
SYMMETRY                  False
THRESH                    12
SCF_CONVERGENCE           8
MAX_SUB_FILE_NUM          128
MEM_STATIC                400
MEM_TOTAL                 4000
$end
--------------------------------------------------------------

   15   -1510.1279693691      7.10E-09 Convergence criterion met
 Total energy in the final basis set = -1510.12796937
   14   -1510.2001009046      7.42E-09 Convergence criterion met
 Total energy in the final basis set = -1510.20010090
   14   -1510.2382797459      6.68E-09 Convergence criterion met
 Total energy in the final basis set = -1510.23827975
   15   -1510.2584460333      1.60E-09 Convergence criterion met
 Total energy in the final basis set = -1510.25844603
   14   -1510.2673536930      3.46E-09 Convergence criterion met
 Total energy in the final basis set = -1510.26735369
   14   -1510.2718609805      2.23E-09 Convergence criterion met
 Total energy in the final basis set = -1510.27186098
   13   -1510.2742477360      9.30E-09 Convergence criterion met
 Total energy in the final basis set = -1510.27424774
   13   -1510.2750457275      2.79E-09 Convergence criterion met
   10   -1510.2757623561      6.88E-09 Convergence criterion met
 Total energy in the final basis set = -1510.27576236
   11   -1510.2757604127      3.05E-09 Convergence criterion met
 Total energy in the final basis set = -1510.27576041
   10   -1510.2757565062      4.79E-09 Convergence criterion met
 Total energy in the final basis set = -1510.27575651
   10   -1510.2757514671      8.42E-09 Convergence criterion met
 Total energy in the final basis set = -1510.27575147
   11   -1510.2757480629      2.64E-09 Convergence criterion met
 Total energy in the final basis set = -1510.27574806
    9   -1510.2757470096      3.58E-09 Convergence criterion met
 Total energy in the final basis set = -1510.27574701

             Standard Nuclear Orientation (Angstroms)
    I     Atom           X                Y                Z
 ----------------------------------------------------------------
    1      O      -4.4543793692    -2.5056316597     1.2689388753
    2      C      -4.4378984284    -1.5396221813     0.4757921281
    3      C      -4.5157879963    -0.0155129593     0.8546268438
    4      C      -3.1894895691     0.8014801409     0.5642586357
    5      C      -2.0438483638    -0.0910478270    -0.0256878732
    6      O      -1.0694222138     0.7449486774    -0.6457481649
    7      C       0.0167849352    -0.0896342169    -1.2145352905
    8      C       1.0551675400     0.8820356901    -1.8808916102
    9      O       2.3197158840     1.1783009685    -1.1606396582
   10      C       2.2820759144     1.0269837786     0.2585427023
   11      C       3.7567660500     1.1036988010     0.8078271061
   12      C       4.3896082586    -0.3103504224     1.1658963263
   13      C       3.4695701326    -1.5671605812     1.0216212868
   14      O       3.3635593648    -2.4986203277     1.8494222250
   15      O      -4.4900410827    -1.6645303979    -0.9532332983
   16      O       2.8036597416    -1.5552919268    -0.2480225335
   17      O       1.2538983238     0.9010058236     0.9584408088
   18      C       2.0539358700    -2.8229440109    -0.4279711363
   19      C       4.7921255994     1.6228813658    -0.2753864704
   20      C       6.1451113306     2.0010319770     0.4506678237
   21      C       6.7554299074     0.5769864445     0.7257939492
   22      C       5.6178137792    -0.3520909208     0.1471247195
   23      O       5.1292285450     0.3939098211    -1.0313491547
   24      H       3.7400893093     1.7461583469     1.7066881925
   25      H       4.7523357864    -0.3145283027     2.2090365913
   26      H       4.3885207969     2.3965273806    -0.9553865565
   27      H       6.7878954217     2.5952940169    -0.2179216386
   28      H       5.9720714269     2.5740479562     1.3756446075
   29      H       7.6945567732     0.4243587390     0.1699537863
   30      H       6.9430151811     0.3904773033     1.7952217865
   31      H       5.9400402586    -1.3710802409    -0.1429959439
   32      O      -1.9566142192    -1.3388183194     0.0352911378
   33      C      -4.3711707193    -3.0886158387    -1.3334853581
   34      C      -5.5488691990     0.7748893367    -0.0584791710
   35      C      -5.8712764956     2.1576603771     0.6357023709
   36      C      -4.5525581530     2.9639056042     0.3369126847
   37      C      -3.7165665682     1.8901320438    -0.4647450371
   38      O      -4.7433072780     1.1597617571    -1.2407695251
   39      H      -4.7874051768     0.0409079038     1.9232372770
   40      H      -2.8051282363     1.2806461318     1.4840409437
   41      H      -5.1575773936    -3.7095289329    -0.8576342915
   42      H      -6.4322846902     0.1846067841    -0.3692221916
   43      H      -6.7487765566     2.6301873924     0.1660630613
   44      H      -6.0662943916     2.0439356813     1.7140620542
   45      H      -4.7515208181     3.8460041411    -0.2923854808
   46      H      -4.0359474885     3.2921071099     1.2528765225
   47      H      -2.9317042629     2.2950402185    -1.1322523349
   48      H      -3.3794750104    -3.4970138752    -1.0493000133
   49      H      -4.4847718721    -3.1232882790    -2.4327136787
   50      H       1.6353521086    -2.7876442730    -1.4502226549
   51      H       1.2290957256    -2.9211364652     0.3074707229
   52      H       2.7195200484    -3.7040687034    -0.3291747160
   53      H       1.3896046762     0.4529172356    -2.8480747858
   54      H       0.5291634746     1.8410078432    -2.0946917321
   55      H      -0.4040881615    -0.7551152785    -2.0010710976
   56      H       0.4874064345    -0.7285503748    -0.4431666403
 ----------------------------------------------------------------

    9   -1510.2757462401      2.26E-09 Convergence criterion met
 Total energy in the final basis set = -1510.27574624
 Final energy is   -1510.27574624013
 **  OPTIMIZATION CONVERGED  **

                    Orbital Energies (a.u.)
 --------------------------------------------------------------

 Alpha MOs
 -- Occupied --
-18.939 -18.938 -18.935 -18.916 -18.890 -18.884 -18.878 -18.877
-18.872 -18.855 -10.103 -10.102 -10.101 -10.085 -10.079 -10.075
-10.066 -10.063 -10.060 -10.056 -10.056 -10.051 -10.040 -10.039
-10.035 -10.029 -10.022 -10.021 -10.018 -10.016  -1.018  -1.015
 -1.007  -0.994  -0.971  -0.966  -0.939  -0.938  -0.937  -0.919
 -0.765  -0.759  -0.730  -0.721  -0.715  -0.705  -0.696  -0.664
 -0.649  -0.619  -0.597  -0.583  -0.547  -0.542  -0.539  -0.534
 -0.517  -0.512  -0.486  -0.477  -0.468  -0.461  -0.439  -0.436
 -0.433  -0.429  -0.427  -0.416  -0.411  -0.405  -0.403  -0.399
 -0.392  -0.386  -0.375  -0.365  -0.361  -0.359  -0.353  -0.346
 -0.341  -0.337  -0.333  -0.331  -0.326  -0.325  -0.318  -0.311
 -0.309  -0.306  -0.303  -0.302  -0.297  -0.291  -0.278  -0.277
 -0.270  -0.258  -0.254  -0.246  -0.239  -0.235  -0.231  -0.182
 -0.179  -0.174  -0.160  -0.158  -0.155  -0.149  -0.145  -0.140
 -0.136

          Ground-State Mulliken Net Atomic Charges

     Atom                 Charge (a.u.)
  ----------------------------------------
      1 O                    -0.218957
      2 C                     0.213047
      3 C                    -0.081306
      4 C                    -0.077931
      5 C                     0.217906
      6 O                    -0.167970
      7 C                    -0.046369
      8 C                    -0.046057
      9 O                    -0.167507
     10 C                     0.214291
     11 C                    -0.078247
     12 C                    -0.080125
     13 C                     0.206579
     14 O                    -0.210173
     15 O                    -0.171991
     16 O                    -0.170708
     17 O                    -0.217136
     18 C                    -0.130458
     19 C                     0.026348
     20 C                    -0.144970
     21 C                    -0.143199
     22 C                     0.026149
     23 O                    -0.185495
     24 H                     0.084389
     25 H                     0.086287
     26 H                     0.089246
     27 H                     0.077913
     28 H                     0.073437
     29 H                     0.078136
     30 H                     0.074478
     31 H                     0.082393
     32 O                    -0.212476
     33 C                    -0.128098
     34 C                     0.026426
     35 C                    -0.144310
     36 C                    -0.143845
     37 C                     0.024377
     38 O                    -0.188018
     39 H                     0.083186
     40 H                     0.088199
     41 H                     0.086282
     42 H                     0.084137
     43 H                     0.076891
     44 H                     0.073517
     45 H                     0.076975
     46 H                     0.073496
     47 H                     0.087358
     48 H                     0.089541
     49 H                     0.086029
     50 H                     0.090199
     51 H                     0.094035
     52 H                     0.091100
     53 H                     0.093326
     54 H                     0.089963
     55 H                     0.085263
     56 H                     0.104446
  ----------------------------------------
  Sum of atomic charges =    -0.000000

                    Cartesian Multipole Moments
 -----------------------------------------------------------------
    Charge (ESU x 10^10)
                -0.0000
    Dipole Moment (Debye)
         X       1.6089      Y       2.1264      Z      -0.8158
       Tot       2.7885
    Quadrupole Moments (Debye-Ang)
        XX    -149.4994     XY      -2.1851     YY    -156.8131
        XZ       2.2493     YZ      11.3702     ZZ    -162.8157

 Total job time:  79.00s(wall), 3759.61s(cpu)
        *  Thank you very much for using Q-Chem.  Have a nice day.  *
