 Q-Chem 5.0, Q-Chem, Inc., Pleasanton, CA (2017)
 Q-Chem 5.0.1 for Intel X86 EM64T Linux

User input:
--------------------------------------------------------------
$molecule
0  1
O 3.7252326482 -2.4269241033 -1.1283210221
C 4.182942723 -1.4487691545 -0.4986562328
C 4.0462160336 0.0633232182 -0.9030255783
C 2.5873015742 0.6608125472 -0.7381123959
C 1.7052237945 -0.1475844198 0.2852253072
O 0.7516704904 0.7350886428 0.866495359
C -0.0905622857 0.0027437822 1.8419383837
C -1.119561523 0.9846136335 2.4961332273
O -2.3891242139 1.1525214503 1.7461781139
C -2.2715170692 1.2793514274 0.3281991727
C -3.7091578578 1.1623032502 -0.3041264767
C -3.9038871212 -0.1496247415 -1.1837375512
C -2.6736094994 -1.0840563833 -1.4474957238
O -2.389684917 -1.5661893232 -2.5685929594
O 4.8907169393 -1.5549107023 0.7416182052
O -1.98181238 -1.4318604787 -0.238493929
O -1.2285382423 1.5184087847 -0.3141632685
C -0.9738988668 -2.4916098659 -0.5243328172
C -4.8506837067 0.9604523053 0.7752650204
C -6.258033022 1.1653884923 0.08402469
C -6.4210113824 -0.1921164238 -0.6950442095
C -5.0493036702 -0.8946231402 -0.3556719112
O -4.7960398675 -0.495846939 1.0445455915
H -3.8761214756 2.0604033785 -0.9265363034
H -4.2784608363 0.1241515714 -2.1861308411
H -4.6951805083 1.531216556 1.7100136012
H -7.0449857897 1.2919112429 0.8442455552
H -6.2682631309 2.0426175281 -0.5825915342
H -7.2621519044 -0.7847734885 -0.3013255843
H -6.5625703438 -0.0518862367 -1.778604145
H -5.04525148 -1.9976118466 -0.4537174077
O 1.7663838667 -1.3703366672 0.5562623846
C 4.9348221371 -2.9710703226 1.1703016042
C 4.9065602399 1.1212341358 -0.0862096971
C 5.1720769156 2.3408402407 -1.0519630495
C 3.7262524286 2.9575954778 -1.1460671857
C 2.9386103911 2.0698770794 -0.1023957932
O 3.9617690687 1.6909517012 0.9030561169
H 4.3204388228 0.1120150409 -1.9730978639
H 2.0493789104 0.7336086117 -1.7012967554
H 5.4829202413 -3.6037384639 0.4422694642
H 5.7961423403 0.7009175344 0.4203623405
H 5.8795075925 3.0474286516 -0.5889484086
H 5.5709025866 2.0278566153 -2.0300005195
H 3.7133191582 4.0161125343 -0.8420410006
H 3.2960563477 2.8776487972 -2.157397861
H 2.0730604483 2.5577337331 0.385116628
H 3.9132866696 -3.3844485644 1.2968958813
H 5.4642827298 -2.980872994 2.1407462594
H -1.27602279 -3.4137030693 0.0094376892
H 0.0230177589 -2.1630310994 -0.1596533197
H -0.9481940204 -2.6759778194 -1.6163817586
H -1.433609491 0.579825215 3.4798106237
H -0.6326711709 1.9735469373 2.6583936814
H 0.5469548374 -0.4473446681 2.6337995999
H -0.6620521207 -0.8067998849 1.3399418281
$end

$rem
JOBTYPE                   OPT
METHOD                    B3LYP
DFT_D                     d3_op
BASIS                     STO-3G
GEOM_OPT_MAX_CYCLES       100
GEOM_OPT_TOL_GRADIENT     300
GEOM_OPT_TOL_DISPLACEMENT 1200
GEOM_OPT_TOL_ENERGY       100
SYMMETRY                  False
THRESH                    12
SCF_CONVERGENCE           8
MAX_SUB_FILE_NUM          128
MEM_STATIC                400
MEM_TOTAL                 4000
$end
--------------------------------------------------------------

   16   -1510.2757190737      5.32E-09 Convergence criterion met
 Total energy in the final basis set = -1510.27571907
   15   -1510.2613489510      3.13E-09 Convergence criterion met
 Total energy in the final basis set = -1510.26134895
   14   -1510.2751630424      6.58E-09 Convergence criterion met
 Total energy in the final basis set = -1510.27516304
   15   -1510.2791056249      3.01E-09 Convergence criterion met
 Total energy in the final basis set = -1510.27910562
   13   -1510.2817663508      6.48E-09 Convergence criterion met
 Total energy in the final basis set = -1510.28176635
   13   -1510.2832181886      7.02E-09 Convergence criterion met
 Total energy in the final basis set = -1510.28321819
   13   -1510.2847632025      3.56E-09 Convergence criterion met
 Total energy in the final basis set = -1510.28476320
   14   -1510.2860334519      4.81E-09 Convergence criterion met
   11   -1510.2923866256      5.64E-09 Convergence criterion met
 Total energy in the final basis set = -1510.29238663
    9   -1510.2923926201      9.93E-09 Convergence criterion met
 Total energy in the final basis set = -1510.29239262
   11   -1510.2924036131      4.42E-09 Convergence criterion met
 Total energy in the final basis set = -1510.29240361
   10   -1510.2924107336      9.45E-09 Convergence criterion met
 Total energy in the final basis set = -1510.29241073
   11   -1510.2924185250      3.08E-09 Convergence criterion met
 Total energy in the final basis set = -1510.29241852
   10   -1510.2924261577      8.24E-09 Convergence criterion met
 Total energy in the final basis set = -1510.29242616

             Standard Nuclear Orientation (Angstroms)
    I     Atom           X                Y                Z
 ----------------------------------------------------------------
    1      O       2.9159142089    -2.9003727379    -0.2457544829
    2      C       3.2279478119    -1.7227908424     0.0357492458
    3      C       3.1225709122    -0.4728562021    -0.9035818825
    4      C       2.1501931922     0.6545899087    -0.3585552073
    5      C       1.3922945129     0.2540777174     0.9513113439
    6      O       1.1811317001     1.4051152538     1.7684727978
    7      C       0.1677150925     1.1208788654     2.8115672604
    8      C      -1.0575915518     2.0976123211     2.6167559433
    9      O      -2.2687875629     1.5193972991     1.9822843146
   10      C      -2.0477032574     1.1613035627     0.6160963846
   11      C      -3.4305375799     0.8770506041    -0.0651495781
   12      C      -3.3144944958     0.0632493257    -1.4212614873
   13      C      -1.8574479688    -0.4244949268    -1.7676231610
   14      O      -1.1100535288     0.0208810106    -2.6680326291
   15      O       3.7854420256    -1.3135779044     1.2905641809
   16      O      -1.5650448613    -1.5475698666    -0.9392559397
   17      O      -0.9282454962     1.1348678437     0.0591918981
   18      C      -0.1982446311    -2.0624667497    -1.1956727572
   19      C      -4.3923661875    -0.0614778596     0.7836455614
   20      C      -5.8628662066     0.1321761412     0.2397767009
   21      C      -5.7771078866    -0.6329157108    -1.1331126768
   22      C      -4.2842372571    -1.1544542041    -1.1029112190
   23      O      -4.0382427306    -1.4241606382     0.3328354199
   24      H      -3.9087919069     1.8596608204    -0.2386073224
   25      H      -3.6762040744     0.6662507183    -2.2723440292
   26      H      -4.2693464457     0.0373242333     1.8794826087
   27      H      -6.5875177585    -0.3410492402     0.9213555908
   28      H      -6.1296340461     1.1945579914     0.1219547764
   29      H      -6.4813858021    -1.4790581276    -1.1694442138
   30      H      -5.9675492404     0.0232557209    -1.9973632940
   31      H      -4.0901591959    -2.0632787077    -1.7042785926
   32      O       0.9776816228    -0.8934955792     1.2477704705
   33      C       3.7990030868    -2.4594342951     2.2267274250
   34      C       4.4856477998     0.3410977348    -0.9856814431
   35      C       4.3946028119     1.3355734521    -2.2112559176
   36      C       3.4497129492     2.4521436059    -1.6302769984
   37      C       3.1496672008     1.8743517061    -0.1917981079
   38      O       4.4255361187     1.2308728144     0.1957516999
   39      H       2.7998204255    -0.8315739042    -1.8964286663
   40      H       1.3632020396     0.8855230328    -1.1023228069
   41      H       4.3559500610    -3.3238865445     1.8115134119
   42      H       5.3979200743    -0.2853445862    -0.9533162545
   43      H       5.3906557383     1.7355946255    -2.4588836174
   44      H       3.9755753604     0.8495551120    -3.1068810203
   45      H       3.9680373366     3.4213768716    -1.5555863613
   46      H       2.5304147206     2.5849190536    -2.2228600885
   47      H       2.8350914832     2.6140888160     0.5689657818
   48      H       2.7672383324    -2.7877799424     2.4696510749
   49      H       4.2993335269    -2.0996493400     3.1443954864
   50      H      -0.2646851742    -3.1556042012    -1.3522159095
   51      H       0.4254656313    -1.8388009293    -0.3006962142
   52      H       0.2242207403    -1.5718994339    -2.0945910125
   53      H      -1.4146694095     2.4407747206     3.6086915058
   54      H      -0.7031965437     2.9799994121     2.0388409570
   55      H       0.6322358575     1.3099534668     3.8019036550
   56      H      -0.1355519189     0.0524334610     2.7441699723
 ----------------------------------------------------------------

    9   -1510.2924262266      4.66E-09 Convergence criterion met
 Total energy in the final basis set = -1510.29242623
 Final energy is   -1510.29242622660
 **  OPTIMIZATION CONVERGED  **

                    Orbital Energies (a.u.)
 --------------------------------------------------------------

 Alpha MOs
 -- Occupied --
-18.946 -18.940 -18.924 -18.912 -18.889 -18.886 -18.883 -18.882
-18.864 -18.853 -10.112 -10.109 -10.090 -10.085 -10.084 -10.076
-10.059 -10.056 -10.056 -10.055 -10.054 -10.040 -10.034 -10.031
-10.030 -10.025 -10.019 -10.018 -10.016 -10.014  -1.026  -1.015
 -1.000  -0.992  -0.967  -0.965  -0.950  -0.942  -0.926  -0.917
 -0.762  -0.759  -0.728  -0.719  -0.714  -0.704  -0.695  -0.652
 -0.640  -0.621  -0.594  -0.580  -0.544  -0.542  -0.535  -0.533
 -0.513  -0.510  -0.486  -0.472  -0.466  -0.459  -0.448  -0.436
 -0.431  -0.428  -0.426  -0.408  -0.406  -0.404  -0.402  -0.400
 -0.390  -0.387  -0.378  -0.363  -0.359  -0.355  -0.346  -0.342
 -0.337  -0.335  -0.332  -0.327  -0.326  -0.320  -0.316  -0.314
 -0.306  -0.304  -0.300  -0.296  -0.294  -0.286  -0.282  -0.272
 -0.271  -0.262  -0.253  -0.243  -0.232  -0.230  -0.228  -0.194
 -0.178  -0.168  -0.166  -0.161  -0.148  -0.142  -0.141  -0.139
 -0.138

          Ground-State Mulliken Net Atomic Charges

     Atom                 Charge (a.u.)
  ----------------------------------------
      1 O                    -0.215116
      2 C                     0.209635
      3 C                    -0.080887
      4 C                    -0.078330
      5 C                     0.233850
      6 O                    -0.168880
      7 C                    -0.055071
      8 C                    -0.049472
      9 O                    -0.171060
     10 C                     0.217371
     11 C                    -0.077959
     12 C                    -0.080429
     13 C                     0.210859
     14 O                    -0.227156
     15 O                    -0.169678
     16 O                    -0.172803
     17 O                    -0.212641
     18 C                    -0.148501
     19 C                     0.024746
     20 C                    -0.143584
     21 C                    -0.144873
     22 C                     0.027531
     23 O                    -0.184716
     24 H                     0.084745
     25 H                     0.081785
     26 H                     0.088395
     27 H                     0.077754
     28 H                     0.072153
     29 H                     0.077610
     30 H                     0.072885
     31 H                     0.085946
     32 O                    -0.217365
     33 C                    -0.128606
     34 C                     0.026128
     35 C                    -0.144123
     36 C                    -0.143706
     37 C                     0.024226
     38 O                    -0.187730
     39 H                     0.085755
     40 H                     0.101708
     41 H                     0.088122
     42 H                     0.082524
     43 H                     0.076735
     44 H                     0.074924
     45 H                     0.076382
     46 H                     0.076327
     47 H                     0.090102
     48 H                     0.090439
     49 H                     0.088330
     50 H                     0.080923
     51 H                     0.105375
     52 H                     0.087335
     53 H                     0.092430
     54 H                     0.092907
     55 H                     0.088576
     56 H                     0.108177
  ----------------------------------------
  Sum of atomic charges =    -0.000000

                    Cartesian Multipole Moments
 -----------------------------------------------------------------
    Charge (ESU x 10^10)
                -0.0000
    Dipole Moment (Debye)
         X      -1.6359      Y       2.6689      Z       1.0223
       Tot       3.2930
    Quadrupole Moments (Debye-Ang)
        XX    -150.2398     XY      -5.9399     YY    -160.7873
        XZ      -0.6354     YZ       1.7455     ZZ    -152.8821

 Total job time:  114.51s(wall), 5455.82s(cpu)
        *  Thank you very much for using Q-Chem.  Have a nice day.  *
