 Q-Chem 5.0, Q-Chem, Inc., Pleasanton, CA (2017)
 Q-Chem 5.0.1 for Intel X86 EM64T Linux

User input:
--------------------------------------------------------------
$molecule
0  1
O -3.94934 -3.66094 2.70899
C -3.26408 -4.56952 2.26188
C -3.36658 -6.02376 2.66595
C -4.61078 -6.79679 2.19879
C -5.52631 -6.07993 1.23132
O -6.17094 -6.98929 0.44206
C -7.05407 -6.38419 -0.5083
C -7.71642 -7.45641 -1.36724
O -8.90563 -7.93617 -0.72033
C -8.79802 -8.14829 0.6148
C -10.13091 -8.3943 1.28078
C -10.57958 -7.29638 2.25625
C -9.83439 -5.98041 2.15809
O -9.41344 -5.33188 3.10507
O -2.31421 -4.25004 1.34088
O -9.88072 -5.3585 0.94893
O -7.79598 -8.61155 1.13911
C -9.586 -4.0223 0.75068
C -11.37113 -8.44736 0.35055
C -12.49205 -9.24035 1.02496
C -12.91065 -8.27276 2.11221
C -12.02269 -7.07355 1.76667
O -11.8877 -7.14083 0.36727
H -10.05496 -9.38889 1.77777
H -10.53506 -7.62154 3.31937
H -11.16627 -8.88408 -0.65063
H -13.32242 -9.32274 0.28712
H -12.21566 -10.25802 1.37536
H -13.98451 -8.02146 1.96459
H -12.74005 -8.62316 3.15322
H -12.46038 -6.13331 2.16971
O -5.91549 -4.92896 1.38574
C -2.11037 -2.98307 0.83513
C -2.242 -6.89895 2.06538
C -2.04049 -8.15283 2.91396
C -3.27728 -8.9362 2.54766
C -3.90284 -7.99978 1.51109
O -2.7968 -7.40608 0.88087
H -3.25126 -6.03312 3.77287
H -5.24752 -7.13253 3.0469
H -1.84318 -2.28105 1.65344
H -1.26794 -6.37166 1.96751
H -1.14972 -8.69015 2.51583
H -1.90077 -7.96358 3.99999
H -2.95666 -9.8822 2.05556
H -3.96944 -9.16142 3.38702
H -4.55725 -8.60834 0.85232
H -3.02752 -2.62717 0.31835
H -1.27801 -3.01354 0.10256
H -9.68585 -3.78375 -0.32796
H -8.54723 -3.79798 1.07462
H -10.29439 -3.38796 1.32468
H -8.0515 -6.99575 -2.32086
H -7.00819 -8.27758 -1.61263
H -6.41418 -5.78544 -1.19616
H -7.78731 -5.7004 -0.07165
$end

$opt
CONSTRAINT
tors           1           2           3           4     +71.242
tors           3           4           5           6    +151.639
tors           4           5           6           7    -179.695
tors           5           6           7           8    +178.984
tors           6           7           8           9     +86.957
tors           7           8           9          10     -42.535
tors           8           9          10          11    +169.028
tors           9          10          11          12    -112.985
tors          11          12          13          14    -134.937
ENDCONSTRAINT
$end

$rem
JOBTYPE                   OPT
METHOD                    B3LYP
DFT_D                     d3_op
BASIS                     STO-3G
GEOM_OPT_MAX_CYCLES       100
GEOM_OPT_TOL_GRADIENT     300
GEOM_OPT_TOL_DISPLACEMENT 1200
GEOM_OPT_TOL_ENERGY       100
SYMMETRY                  False
THRESH                    12
SCF_CONVERGENCE           8
MAX_SUB_FILE_NUM          128
MEM_STATIC                400
MEM_TOTAL                 4000
$end
--------------------------------------------------------------

   15   -1510.1286447490      6.82E-09 Convergence criterion met
 Total energy in the final basis set = -1510.12864475
   14   -1510.2004916450      5.36E-09 Convergence criterion met
 Total energy in the final basis set = -1510.20049164
   14   -1510.2378437738      5.28E-09 Convergence criterion met
 Total energy in the final basis set = -1510.23784377
   15   -1510.2568044910      1.86E-09 Convergence criterion met
 Total energy in the final basis set = -1510.25680449
   13   -1510.2651857126      9.08E-09 Convergence criterion met
 Total energy in the final basis set = -1510.26518571
   13   -1510.2686117975      7.56E-09 Convergence criterion met
 Total energy in the final basis set = -1510.26861180
   14   -1510.2711839567      3.28E-09 Convergence criterion met
 Total energy in the final basis set = -1510.27118396
   14   -1510.2722363717      2.33E-09 Convergence criterion met
   11   -1510.2755479824      8.93E-09 Convergence criterion met
 Total energy in the final basis set = -1510.27554798
   11   -1510.2757504362      8.36E-09 Convergence criterion met
 Total energy in the final basis set = -1510.27575044
   12   -1510.2758915268      9.28E-09 Convergence criterion met
 Total energy in the final basis set = -1510.27589153
   12   -1510.2759068961      2.11E-09 Convergence criterion met
 Total energy in the final basis set = -1510.27590690
   11   -1510.2759209471      4.02E-09 Convergence criterion met
 Total energy in the final basis set = -1510.27592095
    9   -1510.2759224980      5.46E-09 Convergence criterion met
 Total energy in the final basis set = -1510.27592250

             Standard Nuclear Orientation (Angstroms)
    I     Atom           X                Y                Z
 ----------------------------------------------------------------
    1      O       3.7252326482    -2.4269241033    -1.1283210221
    2      C       4.1829427230    -1.4487691545    -0.4986562328
    3      C       4.0462160336     0.0633232182    -0.9030255783
    4      C       2.5873015742     0.6608125472    -0.7381123959
    5      C       1.7052237945    -0.1475844198     0.2852253072
    6      O       0.7516704904     0.7350886428     0.8664953590
    7      C      -0.0905622857     0.0027437822     1.8419383837
    8      C      -1.1195615230     0.9846136335     2.4961332273
    9      O      -2.3891242139     1.1525214503     1.7461781139
   10      C      -2.2715170692     1.2793514274     0.3281991727
   11      C      -3.7091578578     1.1623032502    -0.3041264767
   12      C      -3.9038871212    -0.1496247415    -1.1837375512
   13      C      -2.6736094994    -1.0840563833    -1.4474957238
   14      O      -2.3896849170    -1.5661893232    -2.5685929594
   15      O       4.8907169393    -1.5549107023     0.7416182052
   16      O      -1.9818123800    -1.4318604787    -0.2384939290
   17      O      -1.2285382423     1.5184087847    -0.3141632685
   18      C      -0.9738988668    -2.4916098659    -0.5243328172
   19      C      -4.8506837067     0.9604523053     0.7752650204
   20      C      -6.2580330220     1.1653884923     0.0840246900
   21      C      -6.4210113824    -0.1921164238    -0.6950442095
   22      C      -5.0493036702    -0.8946231402    -0.3556719112
   23      O      -4.7960398675    -0.4958469390     1.0445455915
   24      H      -3.8761214756     2.0604033785    -0.9265363034
   25      H      -4.2784608363     0.1241515714    -2.1861308411
   26      H      -4.6951805083     1.5312165560     1.7100136012
   27      H      -7.0449857897     1.2919112429     0.8442455552
   28      H      -6.2682631309     2.0426175281    -0.5825915342
   29      H      -7.2621519044    -0.7847734885    -0.3013255843
   30      H      -6.5625703438    -0.0518862367    -1.7786041450
   31      H      -5.0452514800    -1.9976118466    -0.4537174077
   32      O       1.7663838667    -1.3703366672     0.5562623846
   33      C       4.9348221371    -2.9710703226     1.1703016042
   34      C       4.9065602399     1.1212341358    -0.0862096971
   35      C       5.1720769156     2.3408402407    -1.0519630495
   36      C       3.7262524286     2.9575954778    -1.1460671857
   37      C       2.9386103911     2.0698770794    -0.1023957932
   38      O       3.9617690687     1.6909517012     0.9030561169
   39      H       4.3204388228     0.1120150409    -1.9730978639
   40      H       2.0493789104     0.7336086117    -1.7012967554
   41      H       5.4829202413    -3.6037384639     0.4422694642
   42      H       5.7961423403     0.7009175344     0.4203623405
   43      H       5.8795075925     3.0474286516    -0.5889484086
   44      H       5.5709025866     2.0278566153    -2.0300005195
   45      H       3.7133191582     4.0161125343    -0.8420410006
   46      H       3.2960563477     2.8776487972    -2.1573978610
   47      H       2.0730604483     2.5577337331     0.3851166280
   48      H       3.9132866696    -3.3844485644     1.2968958813
   49      H       5.4642827298    -2.9808729940     2.1407462594
   50      H      -1.2760227900    -3.4137030693     0.0094376892
   51      H       0.0230177589    -2.1630310994    -0.1596533197
   52      H      -0.9481940204    -2.6759778194    -1.6163817586
   53      H      -1.4336094910     0.5798252150     3.4798106237
   54      H      -0.6326711709     1.9735469373     2.6583936814
   55      H       0.5469548374    -0.4473446681     2.6337995999
   56      H      -0.6620521207    -0.8067998849     1.3399418281
 ----------------------------------------------------------------

    9   -1510.2759233541      7.26E-09 Convergence criterion met
 Total energy in the final basis set = -1510.27592335
 Final energy is   -1510.27592335411
 **  OPTIMIZATION CONVERGED  **

                    Orbital Energies (a.u.)
 --------------------------------------------------------------

 Alpha MOs
 -- Occupied --
-18.941 -18.931 -18.931 -18.925 -18.888 -18.881 -18.876 -18.874
-18.873 -18.861 -10.102 -10.101 -10.098 -10.090 -10.080 -10.072
-10.061 -10.058 -10.056 -10.054 -10.053 -10.042 -10.038 -10.037
-10.037 -10.030 -10.021 -10.019 -10.016 -10.015  -1.019  -1.009
 -1.004  -0.999  -0.970  -0.965  -0.938  -0.938  -0.932  -0.924
 -0.762  -0.759  -0.729  -0.720  -0.713  -0.704  -0.695  -0.653
 -0.652  -0.618  -0.597  -0.580  -0.544  -0.541  -0.537  -0.533
 -0.513  -0.511  -0.485  -0.473  -0.467  -0.460  -0.445  -0.438
 -0.433  -0.429  -0.425  -0.412  -0.409  -0.403  -0.402  -0.401
 -0.389  -0.384  -0.371  -0.365  -0.363  -0.359  -0.348  -0.343
 -0.341  -0.336  -0.331  -0.329  -0.326  -0.322  -0.321  -0.309
 -0.307  -0.304  -0.303  -0.301  -0.295  -0.289  -0.276  -0.274
 -0.272  -0.256  -0.248  -0.244  -0.241  -0.233  -0.229  -0.185
 -0.173  -0.171  -0.168  -0.158  -0.154  -0.145  -0.144  -0.138
 -0.137

          Ground-State Mulliken Net Atomic Charges

     Atom                 Charge (a.u.)
  ----------------------------------------
      1 O                    -0.214618
      2 C                     0.211887
      3 C                    -0.082319
      4 C                    -0.074462
      5 C                     0.217244
      6 O                    -0.159029
      7 C                    -0.053578
      8 C                    -0.044312
      9 O                    -0.173192
     10 C                     0.213577
     11 C                    -0.078161
     12 C                    -0.079612
     13 C                     0.208323
     14 O                    -0.213337
     15 O                    -0.171258
     16 O                    -0.175211
     17 O                    -0.208746
     18 C                    -0.149089
     19 C                     0.025338
     20 C                    -0.145270
     21 C                    -0.143121
     22 C                     0.025887
     23 O                    -0.187294
     24 H                     0.084097
     25 H                     0.085931
     26 H                     0.090838
     27 H                     0.077568
     28 H                     0.073086
     29 H                     0.077992
     30 H                     0.074456
     31 H                     0.082688
     32 O                    -0.219286
     33 C                    -0.127874
     34 C                     0.023017
     35 C                    -0.142569
     36 C                    -0.145456
     37 C                     0.023018
     38 O                    -0.193843
     39 H                     0.081949
     40 H                     0.091459
     41 H                     0.086284
     42 H                     0.089550
     43 H                     0.076570
     44 H                     0.072674
     45 H                     0.077236
     46 H                     0.074078
     47 H                     0.093238
     48 H                     0.093327
     49 H                     0.087766
     50 H                     0.081798
     51 H                     0.098919
     52 H                     0.102145
     53 H                     0.095232
     54 H                     0.088735
     55 H                     0.089771
     56 H                     0.105959
  ----------------------------------------
  Sum of atomic charges =     0.000000

                    Cartesian Multipole Moments
 -----------------------------------------------------------------
    Charge (ESU x 10^10)
                 0.0000
    Dipole Moment (Debye)
         X      -0.9537      Y       1.5777      Z       0.6347
       Tot       1.9498
    Quadrupole Moments (Debye-Ang)
        XX    -144.4052     XY      -2.9991     YY    -157.7382
        XZ       0.1413     YZ      -6.3407     ZZ    -160.7244

 Total job time:  97.85s(wall), 4666.52s(cpu)
        *  Thank you very much for using Q-Chem.  Have a nice day.  *
