 Q-Chem 5.0, Q-Chem, Inc., Pleasanton, CA (2017)
 Q-Chem 5.0.1 for Intel X86 EM64T Linux

User input:
--------------------------------------------------------------
$molecule
0  1
O -3.94934 -3.66094 2.70899
C -3.26408 -4.56952 2.26188
C -3.36658 -6.02376 2.66595
C -3.98824 -6.99375 1.64786
C -4.2751 -6.4347 0.2719
O -4.24463 -7.43942 -0.65277
C -4.5012 -6.98568 -1.98602
C -4.41305 -8.15236 -2.9644
O -5.71762 -8.71582 -3.17296
C -6.29322 -9.27427 -2.07937
C -7.7238 -9.69532 -2.31773
C -8.78249 -8.76692 -1.70493
C -8.29082 -7.40157 -1.26814
O -8.85663 -6.66554 -0.47272
O -2.39958 -4.29093 1.24905
O -7.61655 -6.74703 -2.25049
O -5.74987 -9.42679 -0.99492
C -7.63616 -5.37193 -2.42823
C -8.20194 -9.68907 -3.79539
C -9.38391 -10.64577 -3.95913
C -10.46945 -9.88287 -3.22789
C -9.72184 -8.58363 -2.91086
O -8.81755 -8.43927 -3.9787
H -7.79717 -10.7494 -1.96682
H -9.2826 -9.22553 -0.82369
H -7.40645 -9.95738 -4.52402
H -9.63496 -10.66453 -5.04426
H -9.21656 -11.68679 -3.6084
H -11.307 -9.69747 -3.93644
H -10.85053 -10.36722 -2.30275
H -10.43644 -7.74433 -2.76018
O -4.87048 -5.37832 0.09381
C -2.20045 -3.03399 0.71817
C -1.99226 -6.66048 2.91472
C -2.1363 -7.86589 3.84042
C -2.79824 -8.85562 2.90741
C -2.83705 -8.03879 1.61059
O -1.6739 -7.24999 1.67965
H -3.96835 -6.02943 3.60323
H -4.9359 -7.45105 2.00992
H -1.82916 -2.34171 1.50381
H -1.24785 -5.943 3.32498
H -1.11204 -8.23216 4.07861
H -2.68519 -7.66267 4.78512
H -2.11687 -9.72738 2.78523
H -3.80627 -9.2056 3.2182
H -2.88905 -8.74446 0.75475
H -3.14896 -2.64445 0.29057
H -1.4434 -3.09674 -0.09011
H -7.0171 -5.10653 -3.30987
H -7.22848 -4.85824 -1.53117
H -8.67564 -5.02734 -2.61519
H -4.11561 -7.73874 -3.95192
H -3.64725 -8.90479 -2.67222
H -3.64353 -6.32083 -2.24012
H -5.38224 -6.36982 -2.11287
$end

$opt
CONSTRAINT
tors           1           2           3           4    +107.646
tors           3           4           5           6    +153.273
tors           4           5           6           7    -179.695
tors           5           6           7           8    +178.451
tors           6           7           8           9     +93.654
tors           7           8           9          10     -63.907
tors           8           9          10          11    +172.942
tors           9          10          11          12    -103.941
tors          11          12          13          14    -160.197
ENDCONSTRAINT
$end

$rem
JOBTYPE                   OPT
METHOD                    B3LYP
DFT_D                     d3_op
BASIS                     STO-3G
GEOM_OPT_MAX_CYCLES       100
GEOM_OPT_TOL_GRADIENT     300
GEOM_OPT_TOL_DISPLACEMENT 1200
GEOM_OPT_TOL_ENERGY       100
SYMMETRY                  False
THRESH                    12
SCF_CONVERGENCE           8
MAX_SUB_FILE_NUM          128
MEM_STATIC                400
MEM_TOTAL                 4000
$end
--------------------------------------------------------------

   15   -1510.1347920099      7.23E-09 Convergence criterion met
 Total energy in the final basis set = -1510.13479201
   14   -1510.2057103536      6.53E-09 Convergence criterion met
 Total energy in the final basis set = -1510.20571035
   14   -1510.2440569535      7.21E-09 Convergence criterion met
 Total energy in the final basis set = -1510.24405695
   14   -1510.2628330334      6.52E-09 Convergence criterion met
 Total energy in the final basis set = -1510.26283303
   14   -1510.2697419674      3.97E-09 Convergence criterion met
 Total energy in the final basis set = -1510.26974197
   14   -1510.2740751972      4.63E-09 Convergence criterion met
 Total energy in the final basis set = -1510.27407520
    2   -1510.2740751971      1.62E-09 Convergence criterion met
 Total energy in the final basis set = -1510.27407520
   13   -1510.2763271776      5.65E-09 Convergence criterion met
   11   -1510.2808686397      5.20E-09 Convergence criterion met
 Total energy in the final basis set = -1510.28086864
   11   -1510.2809103544      5.21E-09 Convergence criterion met
 Total energy in the final basis set = -1510.28091035
   11   -1510.2809392101      5.63E-09 Convergence criterion met
 Total energy in the final basis set = -1510.28093921
   11   -1510.2809596619      5.17E-09 Convergence criterion met
 Total energy in the final basis set = -1510.28095966
   11   -1510.2809671502      3.50E-09 Convergence criterion met
 Total energy in the final basis set = -1510.28096715
    9   -1510.2809699291      5.67E-09 Convergence criterion met
 Total energy in the final basis set = -1510.28096993

             Standard Nuclear Orientation (Angstroms)
    I     Atom           X                Y                Z
 ----------------------------------------------------------------
    1      O       4.3184409168    -2.5689827919    -0.9236995869
    2      C       4.2524226511    -1.4784311396    -0.3163297491
    3      C       4.0148361136    -0.0633826710    -0.9531915309
    4      C       2.5761400367     0.5436616953    -0.6746232999
    5      C       1.7104107949    -0.3609022633     0.2696767870
    6      O       0.7661343263     0.4438412018     0.9604528159
    7      C      -0.0640587582    -0.3879756657     1.8692684804
    8      C      -1.0523385001     0.5613115593     2.6259421535
    9      O      -2.3669488005     0.6699990106     1.9470705455
   10      C      -2.2622488057     1.2688530581     0.6499100295
   11      C      -3.6543774190     1.1856272543    -0.0765425631
   12      C      -3.8252945543     0.0917708657    -1.2190853379
   13      C      -2.7033562270    -0.9494861196    -1.5601206297
   14      O      -2.6598263330    -1.5602454007    -2.6538909997
   15      O       4.4514036431    -1.3268688883     1.0955810533
   16      O      -1.8377749322    -1.2491075244    -0.4596060647
   17      O      -1.2364265444     1.8229099481     0.2009048044
   18      C      -0.9781097040    -2.4151140478    -0.8122514710
   19      C      -4.8495055840     0.7961649337     0.8972513578
   20      C      -6.2052848443     1.2724628730     0.2419744947
   21      C      -6.3824339075     0.2037802001    -0.8975496255
   22      C      -5.1043611358    -0.6966609995    -0.6705116771
   23      O      -4.9144051012    -0.6798504929     0.7946013569
   24      H      -3.8236478441     2.1825402404    -0.5234913477
   25      H      -4.0696875550     0.5869221602    -2.1758250750
   26      H      -4.6956075294     1.1040582289     1.9485528487
   27      H      -7.0249396467     1.2205346060     0.9761985640
   28      H      -6.1421068854     2.3025409947    -0.1437577035
   29      H      -7.2997891899    -0.3901543800    -0.7574261617
   30      H      -6.4002669732     0.6503315302    -1.9044643919
   31      H      -5.1911573382    -1.7359046770    -1.0433390440
   32      O       1.7633581218    -1.6123792786     0.3599422050
   33      C       4.5903510690    -2.6600098974     1.7219081723
   34      C       4.9353489965     1.0729737408    -0.3300880592
   35      C       4.9597863764     2.2860869863    -1.3420879265
   36      C       3.5237937759     2.8917378753    -1.1221176074
   37      C       2.9526249748     1.9310616098    -0.0067370462
   38      O       4.1422291910     1.5913281213     0.8082611468
   39      H       4.1855037764    -0.1668504722    -2.0391823577
   40      H       2.0102655843     0.6847935341    -1.6147948390
   41      H       5.4349459353    -3.2327189279     1.2871957622
   42      H       5.9271273564     0.7237061035     0.0160272368
   43      H       5.7478485194     3.0040789422    -1.0641151294
   44      H       5.1308941180     1.9580961901    -2.3798740455
   45      H       3.5734350539     3.9269530883    -0.7489734416
   46      H       2.9097673287     2.8750283294    -2.0367160966
   47      H       2.1468742653     2.3532919479     0.6240279429
   48      H       3.6618927391    -3.2559372964     1.6030488429
   49      H       4.7792169332    -2.4765338717     2.7955958049
   50      H      -1.3884132597    -3.3242034979    -0.3292576211
   51      H       0.0478905174    -2.2236078947    -0.4325017991
   52      H      -0.9820351814    -2.5538456117    -1.9106788018
   53      H      -1.2879078086     0.1389404586     3.6231732766
   54      H      -0.5798066899     1.5605600456     2.7548354754
   55      H       0.5843008581    -0.9309972253     2.5903208997
   56      H      -0.6650808588    -1.1210431191     1.2932654057
 ----------------------------------------------------------------

    9   -1510.2809699809      2.64E-09 Convergence criterion met
 Total energy in the final basis set = -1510.28096998
 Final energy is   -1510.28096998087
 **  OPTIMIZATION CONVERGED  **

                    Orbital Energies (a.u.)
 --------------------------------------------------------------

 Alpha MOs
 -- Occupied --
-18.945 -18.936 -18.933 -18.921 -18.890 -18.883 -18.879 -18.874
-18.872 -18.860 -10.106 -10.101 -10.101 -10.089 -10.079 -10.073
-10.062 -10.059 -10.056 -10.055 -10.054 -10.045 -10.041 -10.039
-10.038 -10.031 -10.022 -10.021 -10.017 -10.016  -1.022  -1.012
 -1.007  -0.998  -0.972  -0.966  -0.942  -0.937  -0.934  -0.923
 -0.764  -0.760  -0.729  -0.721  -0.715  -0.705  -0.696  -0.655
 -0.651  -0.618  -0.599  -0.581  -0.544  -0.542  -0.539  -0.534
 -0.516  -0.513  -0.487  -0.476  -0.468  -0.463  -0.444  -0.437
 -0.435  -0.429  -0.424  -0.416  -0.410  -0.406  -0.403  -0.401
 -0.390  -0.382  -0.372  -0.367  -0.362  -0.360  -0.346  -0.344
 -0.341  -0.340  -0.333  -0.333  -0.327  -0.324  -0.320  -0.313
 -0.309  -0.307  -0.302  -0.300  -0.296  -0.288  -0.280  -0.276
 -0.272  -0.258  -0.251  -0.243  -0.242  -0.235  -0.231  -0.187
 -0.175  -0.173  -0.164  -0.160  -0.156  -0.148  -0.144  -0.141
 -0.139

          Ground-State Mulliken Net Atomic Charges

     Atom                 Charge (a.u.)
  ----------------------------------------
      1 O                    -0.216570
      2 C                     0.211599
      3 C                    -0.081579
      4 C                    -0.076376
      5 C                     0.219368
      6 O                    -0.159133
      7 C                    -0.053745
      8 C                    -0.045679
      9 O                    -0.170598
     10 C                     0.211870
     11 C                    -0.079915
     12 C                    -0.078343
     13 C                     0.208171
     14 O                    -0.217047
     15 O                    -0.171792
     16 O                    -0.173716
     17 O                    -0.209036
     18 C                    -0.149364
     19 C                     0.025382
     20 C                    -0.144555
     21 C                    -0.143760
     22 C                     0.025932
     23 O                    -0.187838
     24 H                     0.083492
     25 H                     0.086836
     26 H                     0.090099
     27 H                     0.077890
     28 H                     0.073279
     29 H                     0.078488
     30 H                     0.074654
     31 H                     0.083968
     32 O                    -0.220264
     33 C                    -0.128350
     34 C                     0.026044
     35 C                    -0.143962
     36 C                    -0.144034
     37 C                     0.023936
     38 O                    -0.189202
     39 H                     0.083209
     40 H                     0.088862
     41 H                     0.086851
     42 H                     0.084229
     43 H                     0.076868
     44 H                     0.073188
     45 H                     0.077653
     46 H                     0.074112
     47 H                     0.093855
     48 H                     0.090806
     49 H                     0.086990
     50 H                     0.081989
     51 H                     0.100855
     52 H                     0.100548
     53 H                     0.093258
     54 H                     0.093457
     55 H                     0.089334
     56 H                     0.107789
  ----------------------------------------
  Sum of atomic charges =    -0.000000

                    Cartesian Multipole Moments
 -----------------------------------------------------------------
    Charge (ESU x 10^10)
                 0.0000
    Dipole Moment (Debye)
         X      -1.4081      Y       1.9309      Z       0.7272
       Tot       2.4980
    Quadrupole Moments (Debye-Ang)
        XX    -150.7419     XY      -2.4117     YY    -161.6716
        XZ       0.0976     YZ      -7.7010     ZZ    -158.2198

 Total job time:  88.99s(wall), 4243.96s(cpu)
        *  Thank you very much for using Q-Chem.  Have a nice day.  *
