 Q-Chem 5.0, Q-Chem, Inc., Pleasanton, CA (2017)
 Q-Chem 5.0.1 for Intel X86 EM64T Linux

User input:
--------------------------------------------------------------
$molecule
0  1
O 4.3184409168 -2.5689827919 -0.9236995869
C 4.2524226511 -1.4784311396 -0.3163297491
C 4.0148361136 -0.063382671 -0.9531915309
C 2.5761400367 0.5436616953 -0.6746232999
C 1.7104107949 -0.3609022633 0.269676787
O 0.7661343263 0.4438412018 0.9604528159
C -0.0640587582 -0.3879756657 1.8692684804
C -1.0523385001 0.5613115593 2.6259421535
O -2.3669488005 0.6699990106 1.9470705455
C -2.2622488057 1.2688530581 0.6499100295
C -3.654377419 1.1856272543 -0.0765425631
C -3.8252945543 0.0917708657 -1.2190853379
C -2.703356227 -0.9494861196 -1.5601206297
O -2.659826333 -1.5602454007 -2.6538909997
O 4.4514036431 -1.3268688883 1.0955810533
O -1.8377749322 -1.2491075244 -0.4596060647
O -1.2364265444 1.8229099481 0.2009048044
C -0.978109704 -2.4151140478 -0.812251471
C -4.849505584 0.7961649337 0.8972513578
C -6.2052848443 1.272462873 0.2419744947
C -6.3824339075 0.2037802001 -0.8975496255
C -5.1043611358 -0.6966609995 -0.6705116771
O -4.9144051012 -0.6798504929 0.7946013569
H -3.8236478441 2.1825402404 -0.5234913477
H -4.069687555 0.5869221602 -2.175825075
H -4.6956075294 1.1040582289 1.9485528487
H -7.0249396467 1.220534606 0.976198564
H -6.1421068854 2.3025409947 -0.1437577035
H -7.2997891899 -0.39015438 -0.7574261617
H -6.4002669732 0.6503315302 -1.9044643919
H -5.1911573382 -1.735904677 -1.043339044
O 1.7633581218 -1.6123792786 0.359942205
C 4.590351069 -2.6600098974 1.7219081723
C 4.9353489965 1.0729737408 -0.3300880592
C 4.9597863764 2.2860869863 -1.3420879265
C 3.5237937759 2.8917378753 -1.1221176074
C 2.9526249748 1.9310616098 -0.0067370462
O 4.142229191 1.5913281213 0.8082611468
H 4.1855037764 -0.1668504722 -2.0391823577
H 2.0102655843 0.6847935341 -1.614794839
H 5.4349459353 -3.2327189279 1.2871957622
H 5.9271273564 0.7237061035 0.0160272368
H 5.7478485194 3.0040789422 -1.0641151294
H 5.130894118 1.9580961901 -2.3798740455
H 3.5734350539 3.9269530883 -0.7489734416
H 2.9097673287 2.8750283294 -2.0367160966
H 2.1468742653 2.3532919479 0.6240279429
H 3.6618927391 -3.2559372964 1.6030488429
H 4.7792169332 -2.4765338717 2.7955958049
H -1.3884132597 -3.3242034979 -0.3292576211
H 0.0478905174 -2.2236078947 -0.4325017991
H -0.9820351814 -2.5538456117 -1.9106788018
H -1.2879078086 0.1389404586 3.6231732766
H -0.5798066899 1.5605600456 2.7548354754
H 0.5843008581 -0.9309972253 2.5903208997
H -0.6650808588 -1.1210431191 1.2932654057
$end

$rem
JOBTYPE                   OPT
METHOD                    B3LYP
DFT_D                     d3_op
BASIS                     STO-3G
GEOM_OPT_MAX_CYCLES       100
GEOM_OPT_TOL_GRADIENT     300
GEOM_OPT_TOL_DISPLACEMENT 1200
GEOM_OPT_TOL_ENERGY       100
SYMMETRY                  False
THRESH                    12
SCF_CONVERGENCE           8
MAX_SUB_FILE_NUM          128
MEM_STATIC                400
MEM_TOTAL                 4000
$end
--------------------------------------------------------------

   16   -1510.2811149852      5.44E-09 Convergence criterion met
 Total energy in the final basis set = -1510.28111499
   13   -1510.2813585116      4.97E-09 Convergence criterion met
 Total energy in the final basis set = -1510.28135851
   14   -1510.2780815237      2.51E-09 Convergence criterion met
 Total energy in the final basis set = -1510.27808152
   14   -1510.2823944767      9.91E-09 Convergence criterion met
 Total energy in the final basis set = -1510.28239448
   14   -1510.2831888142      2.30E-09 Convergence criterion met
 Total energy in the final basis set = -1510.28318881
   14   -1510.2846387837      6.56E-09 Convergence criterion met
 Total energy in the final basis set = -1510.28463878
   13   -1510.2856881340      7.98E-09 Convergence criterion met
 Total energy in the final basis set = -1510.28568813
   14   -1510.2859132640      3.79E-09 Convergence criterion met
   11   -1510.2920981461      8.94E-09 Convergence criterion met
 Total energy in the final basis set = -1510.29209815
   11   -1510.2921072620      7.87E-09 Convergence criterion met
 Total energy in the final basis set = -1510.29210726
   11   -1510.2921157233      9.59E-09 Convergence criterion met
 Total energy in the final basis set = -1510.29211572
   11   -1510.2921267311      3.13E-09 Convergence criterion met
 Total energy in the final basis set = -1510.29212673
   11   -1510.2921301793      2.92E-09 Convergence criterion met
 Total energy in the final basis set = -1510.29213018
   10   -1510.2921343299      9.08E-09 Convergence criterion met
 Total energy in the final basis set = -1510.29213433

             Standard Nuclear Orientation (Angstroms)
    I     Atom           X                Y                Z
 ----------------------------------------------------------------
    1      O       2.9223347144    -2.8681412650    -0.5572445824
    2      C       3.2169471123    -1.7150192013    -0.1742745574
    3      C       3.0746116587    -0.3863283789    -0.9911370725
    4      C       2.1010473286     0.6697839309    -0.3200742530
    5      C       1.3772216821     0.1282871441     0.9590345011
    6      O       1.1974990812     1.1733114552     1.9149790650
    7      C       0.2050973364     0.7659238496     2.9377847358
    8      C      -1.0256121661     1.7535346481     2.8893015445
    9      O      -2.2440538421     1.2629946841     2.1959219227
   10      C      -2.0393951942     1.0977822346     0.7911605337
   11      C      -3.4269726104     0.9111503706     0.0875660617
   12      C      -3.3178118309     0.3112735090    -1.3760604113
   13      C      -1.8665068180    -0.1469218363    -1.7849158946
   14      O      -1.1095670574     0.4018550160    -2.6178703181
   15      O       3.7802254797    -1.4099184075     1.1075617004
   16      O      -1.5947102693    -1.3752935718    -1.1135488217
   17      O      -0.9267076185     1.1509471137     0.2225841847
   18      C      -0.2367248824    -1.8759900430    -1.4362974628
   19      C      -4.3885806822    -0.1434014001     0.7879297083
   20      C      -5.8602499343     0.1456485955     0.2921835666
   21      C      -5.7906901628    -0.3924341845    -1.1850076646
   22      C      -4.3043095242    -0.9274036685    -1.2488254515
   23      O      -4.0527845041    -1.4224563587     0.1256597559
   24      H      -3.9076781237     1.9073967282     0.0636058235
   25      H      -3.6631741808     1.0427482597    -2.1277483224
   26      H      -4.2573985890    -0.2190851102     1.8846822360
   27      H      -6.5850482678    -0.4248646101     0.8947433574
   28      H      -6.1192435321     1.2149959880     0.3474701778
   29      H      -6.5044079356    -1.2149543354    -1.3501033982
   30      H      -5.9795205868     0.3937427234    -1.9334900913
   31      H      -4.1245722286    -1.7320947309    -1.9871297305
   32      O       0.9572880986    -1.0437348595     1.1270593912
   33      C       3.8203243827    -2.6340000765     1.9382355936
   34      C       4.4247883702     0.4528152750    -1.0276215680
   35      C       4.2875141474     1.5551024815    -2.1526318356
   36      C       3.3408415356     2.5963012793    -1.4481769036
   37      C       3.0866822036     1.8836540082    -0.0625872536
   38      O       4.3816549190     1.2284899086     0.2324047301
   39      H       2.7342932891    -0.6553592744    -2.0060997193
   40      H       1.2919907667     0.9576499522    -1.0195020516
   41      H       4.3925397946    -3.4468755057     1.4465650822
   42      H       5.3460442413    -0.1592203858    -1.0761735494
   43      H       5.2708615311     1.9934309630    -2.3857175476
   44      H       3.8533384667     1.1462936152    -3.0790232375
   45      H       3.8455822979     3.5640580267    -1.2982444510
   46      H       2.4046384367     2.7658345442    -2.0038385586
   47      H       2.7813148932     2.5443394165     0.7708990412
   48      H       2.7962104746    -3.0032448132     2.1531925440
   49      H       4.3172652294    -2.3472177419     2.8830797406
   50      H      -0.3218795202    -2.9406534049    -1.7242742031
   51      H       0.3918158584    -1.7726226035    -0.5223189201
   52      H       0.1907067984    -1.2860451158    -2.2705542886
   53      H      -1.3719287659     1.9560925708     3.9228112020
   54      H      -0.6808553548     2.7087730807     2.4342837656
   55      H       0.6902169807     0.8375017659     3.9336584012
   56      H      -0.0982437696    -0.2877087040     2.7481242968
 ----------------------------------------------------------------

    9   -1510.2921343705      1.96E-09 Convergence criterion met
 Total energy in the final basis set = -1510.29213437
 Final energy is   -1510.29213437050
 **  OPTIMIZATION CONVERGED  **

                    Orbital Energies (a.u.)
 --------------------------------------------------------------

 Alpha MOs
 -- Occupied --
-18.946 -18.940 -18.924 -18.912 -18.889 -18.886 -18.883 -18.882
-18.864 -18.853 -10.113 -10.109 -10.090 -10.085 -10.084 -10.076
-10.059 -10.057 -10.056 -10.055 -10.054 -10.041 -10.034 -10.031
-10.030 -10.025 -10.019 -10.018 -10.015 -10.014  -1.027  -1.015
 -1.000  -0.992  -0.967  -0.965  -0.950  -0.942  -0.926  -0.917
 -0.762  -0.759  -0.728  -0.719  -0.714  -0.704  -0.695  -0.652
 -0.640  -0.621  -0.594  -0.580  -0.544  -0.542  -0.535  -0.533
 -0.513  -0.510  -0.486  -0.472  -0.466  -0.459  -0.448  -0.436
 -0.432  -0.428  -0.425  -0.409  -0.406  -0.404  -0.402  -0.400
 -0.390  -0.387  -0.378  -0.364  -0.359  -0.355  -0.346  -0.342
 -0.337  -0.335  -0.332  -0.327  -0.326  -0.320  -0.316  -0.314
 -0.306  -0.304  -0.300  -0.296  -0.294  -0.286  -0.282  -0.272
 -0.271  -0.262  -0.252  -0.243  -0.232  -0.230  -0.228  -0.194
 -0.178  -0.168  -0.166  -0.161  -0.148  -0.142  -0.141  -0.139
 -0.139

          Ground-State Mulliken Net Atomic Charges

     Atom                 Charge (a.u.)
  ----------------------------------------
      1 O                    -0.214682
      2 C                     0.209514
      3 C                    -0.080909
      4 C                    -0.078236
      5 C                     0.233624
      6 O                    -0.168207
      7 C                    -0.055480
      8 C                    -0.049575
      9 O                    -0.170760
     10 C                     0.217408
     11 C                    -0.078083
     12 C                    -0.080138
     13 C                     0.210795
     14 O                    -0.227603
     15 O                    -0.169821
     16 O                    -0.172629
     17 O                    -0.212786
     18 C                    -0.148937
     19 C                     0.024763
     20 C                    -0.143391
     21 C                    -0.144978
     22 C                     0.027331
     23 O                    -0.184051
     24 H                     0.084727
     25 H                     0.081749
     26 H                     0.088293
     27 H                     0.077742
     28 H                     0.072136
     29 H                     0.077748
     30 H                     0.072956
     31 H                     0.085768
     32 O                    -0.218251
     33 C                    -0.128689
     34 C                     0.026042
     35 C                    -0.144073
     36 C                    -0.143696
     37 C                     0.024267
     38 O                    -0.187701
     39 H                     0.085732
     40 H                     0.102543
     41 H                     0.088145
     42 H                     0.082460
     43 H                     0.076633
     44 H                     0.074914
     45 H                     0.076268
     46 H                     0.076814
     47 H                     0.090118
     48 H                     0.090342
     49 H                     0.088356
     50 H                     0.080929
     51 H                     0.105516
     52 H                     0.086767
     53 H                     0.092493
     54 H                     0.092846
     55 H                     0.088593
     56 H                     0.108343
  ----------------------------------------
  Sum of atomic charges =    -0.000000

                    Cartesian Multipole Moments
 -----------------------------------------------------------------
    Charge (ESU x 10^10)
                -0.0000
    Dipole Moment (Debye)
         X      -1.6746      Y       2.5046      Z       1.3606
       Tot       3.3058
    Quadrupole Moments (Debye-Ang)
        XX    -150.4909     XY      -6.1790     YY    -161.6103
        XZ      -1.1990     YZ       0.8375     ZZ    -151.9043

 Total job time:  116.00s(wall), 5531.06s(cpu)
        *  Thank you very much for using Q-Chem.  Have a nice day.  *
