 Q-Chem 5.0, Q-Chem, Inc., Pleasanton, CA (2017)
 Q-Chem 5.0.1 for Intel X86 EM64T Linux

User input:
--------------------------------------------------------------
$molecule
0  1
O 4.5529620013 -2.798360735 -0.3296702099
C 4.3285658658 -1.6309928111 0.0553770126
C 4.2878406301 -0.333475107 -0.8235530998
C 2.873878386 0.3875703461 -0.8196051414
C 1.8055134953 -0.3758634075 0.0430405595
O 1.0069112723 0.5594871332 0.7588305455
C -0.0041137904 -0.1465622306 1.5856328028
C -0.8325831977 0.9632819586 2.3340520874
O -2.2690262663 0.8807683019 1.9848464229
C -2.4751933547 1.2955616944 0.6288642588
C -3.9834505691 1.0881826632 0.242180651
C -4.1812614171 0.2895496476 -1.1149190419
C -2.8896544968 -0.2365543949 -1.8304181848
O -2.6543625653 -0.1437385442 -3.0556257069
O 4.0882745182 -1.2617120188 1.4201272304
O -2.0529434768 -0.9589811417 -0.9147390908
O -1.5791774723 1.7721830926 -0.1008095554
C -0.9368009032 -1.5871057042 -1.6667194106
C -4.7903810413 0.1737784653 1.2557321585
C -6.3328457807 0.3963313739 1.0005049623
C -6.5382723002 -0.4027832055 -0.3393241521
C -5.073493819 -0.9305360843 -0.6055521702
O -4.5463719969 -1.1972597805 0.7504742396
H -4.4428400083 2.0908186033 0.1577146931
H -4.7253745041 0.8990210819 -1.8576667243
H -4.4568105808 0.2645122457 2.3066665551
H -6.9263518768 -0.0341012691 1.8226765064
H -6.587195181 1.4637845599 0.902669931
H -7.2309191079 -1.2486719528 -0.2033377863
H -6.9097648471 0.2288025804 -1.1620890812
H -5.0075095259 -1.8392516281 -1.234850951
O 1.6162540672 -1.6155817492 0.0669944664
C 4.0079460014 -2.4761698237 2.2614955636
C 5.2043158022 0.8247606812 -0.2348672682
C 5.4119799045 1.9126377983 -1.3620993807
C 4.0086735599 2.6253701986 -1.358152351
C 3.2559913436 1.8101409439 -0.2348764758
O 4.3233980741 1.5005604053 0.7444546236
H 4.5910251264 -0.6143757938 -1.8471968831
H 2.4712890587 0.4692734384 -1.8469836263
H 4.9159222881 -3.1051645282 2.1639923768
H 6.1312620743 0.4710735414 0.2564460886
H 6.2198453901 2.6078393671 -1.0834048996
H 5.6569726821 1.4586771281 -2.3356451102
H 4.0949655833 3.6850643701 -1.0701036218
H 3.4951847173 2.5650019952 -2.3311270754
H 2.4121755022 2.3312615891 0.2562587707
H 3.1226597721 -3.0892153757 1.992607427
H 3.9102497611 -2.1214044097 3.3039567255
H -0.1719507485 -1.8918836808 -0.9240874744
H -0.4901950077 -0.8727979305 -2.3861333954
H -1.2928467074 -2.4743544878 -2.2285197076
H -0.7907401894 0.8208358768 3.4315161628
H -0.4103407204 1.9581112274 2.072027994
H 0.4985488826 -0.8310948351 2.3018920443
H -0.6937280011 -0.7455025949 0.9498933523
$end

$rem
JOBTYPE                   OPT
METHOD                    B3LYP
DFT_D                     d3_op
BASIS                     STO-3G
GEOM_OPT_MAX_CYCLES       100
GEOM_OPT_TOL_GRADIENT     300
GEOM_OPT_TOL_DISPLACEMENT 1200
GEOM_OPT_TOL_ENERGY       100
SYMMETRY                  False
THRESH                    12
SCF_CONVERGENCE           8
MAX_SUB_FILE_NUM          128
MEM_STATIC                400
MEM_TOTAL                 4000
$end
--------------------------------------------------------------

   16   -1510.2854947976      4.92E-09 Convergence criterion met
 Total energy in the final basis set = -1510.28549480
   15   -1510.2651689843      3.89E-09 Convergence criterion met
 Total energy in the final basis set = -1510.26516898
   14   -1510.2847675840      2.81E-09 Convergence criterion met
 Total energy in the final basis set = -1510.28476758
   14   -1510.2843177790      3.31E-09 Convergence criterion met
 Total energy in the final basis set = -1510.28431778
   14   -1510.2851012069      6.43E-09 Convergence criterion met
 Total energy in the final basis set = -1510.28510121
   14   -1510.2851541212      8.41E-09 Convergence criterion met
 Total energy in the final basis set = -1510.28515412
   13   -1510.2858025217      8.67E-09 Convergence criterion met
 Total energy in the final basis set = -1510.28580252
   13   -1510.2853391309      6.19E-09 Convergence criterion met
   11   -1510.2923328058      7.38E-09 Convergence criterion met
 Total energy in the final basis set = -1510.29233281
   11   -1510.2923325538      4.78E-09 Convergence criterion met
 Total energy in the final basis set = -1510.29233255
   10   -1510.2923398545      5.15E-09 Convergence criterion met
 Total energy in the final basis set = -1510.29233985
    9   -1510.2923415399      5.41E-09 Convergence criterion met
 Total energy in the final basis set = -1510.29234154
    9   -1510.2923450864      6.03E-09 Convergence criterion met
 Total energy in the final basis set = -1510.29234509
    9   -1510.2923474474      4.38E-09 Convergence criterion met
 Total energy in the final basis set = -1510.29234745

             Standard Nuclear Orientation (Angstroms)
    I     Atom           X                Y                Z
 ----------------------------------------------------------------
    1      O      -2.6293486540    -2.0845229062     1.9558813041
    2      C      -3.0789640638    -1.3880028333     1.0199624883
    3      C      -3.2474369405     0.1712388979     1.0030771495
    4      C      -2.3212926585     0.9152614061    -0.0479230133
    5      C      -1.3950407055    -0.0571215897    -0.8533133420
    6      O      -1.1574303539     0.4718545525    -2.1556133805
    7      C      -0.1358392125    -0.3308457113    -2.8687354528
    8      C       1.0732442884     0.6058642377    -3.2588369906
    9      O       2.3264646114     0.3719349424    -2.5031596298
   10      C       2.1983173523     0.7430290606    -1.1262628742
   11      C       3.6227033589     0.6705939300    -0.4761096594
   12      C       3.6199792941     0.7292207312     1.1070445384
   13      C       2.1849623153     0.7532703306     1.7528846053
   14      O       1.6186333305     1.7350535331     2.2842715841
   15      O      -3.5902802277    -1.9187681844    -0.2087768766
   16      O       1.6651306289    -0.5739179085     1.7118757120
   17      O       1.1263217098     1.0929181436    -0.5857716232
   18      C       0.2818132114    -0.6261062313     2.2418386477
   19      C       4.3515459700    -0.7189326461    -0.7364975398
   20      C       5.8956782662    -0.5164147297    -0.4759690259
   21      C       5.9249005456    -0.4251958119     1.0952458914
   22      C       4.3944558264    -0.6171805508     1.4433080281
   23      O       3.9174682790    -1.5567489556     0.4016253343
   24      H       4.2153254669     1.5026810645    -0.9004996894
   25      H       4.1646443510     1.6198405329     1.4661131898
   26      H       4.0856107480    -1.1919447560    -1.7014996312
   27      H       6.4630133965    -1.3874829768    -0.8407107087
   28      H       6.2870594633     0.3900150501    -0.9648756859
   29      H       6.5240450407    -1.2378170913     1.5358128590
   30      H       6.3162279389     0.5385871434     1.4585290344
   31      H       4.1871068897    -1.0230655687     2.4518261128
   32      O      -0.9063275443    -1.1359329817    -0.4375457259
   33      C      -3.3681426009    -3.3808471479    -0.2541814548
   34      C      -4.6852369980     0.6123326617     0.4852761068
   35      C      -4.9170366038     2.1196668118     0.8996404162
   36      C      -3.9878476473     2.8627881614    -0.1310214993
   37      C      -3.4036019334     1.6444612739    -0.9489755741
   38      O      -4.5242745488     0.6777495993    -0.9847520199
   39      H      -3.0540239514     0.5358194245     2.0267810568
   40      H      -1.6588792521     1.6457281711     0.4542854827
   41      H      -3.8422928135    -3.8962632508     0.6059177816
   42      H      -5.5030757490    -0.0835079670     0.7544365178
   43      H      -5.9743849442     2.3981738090     0.7650070955
   44      H      -4.6307152775     2.3092862407     1.9463656490
   45      H      -4.5668082965     3.5272211887    -0.7921663833
   46      H      -3.1957208559     3.4527834015     0.3572737357
   47      H      -3.0519955870     1.8761453528    -1.9724716134
   48      H      -2.2849132790    -3.6214911579    -0.2566816884
   49      H      -3.8276557782    -3.7310999122    -1.1966561376
   50      H      -0.3799351974    -0.9554106761     1.4112514797
   51      H      -0.0166636692     0.3755684781     2.6094372828
   52      H       0.2451225499    -1.3606151226     3.0690504213
   53      H       1.3566140226     0.4286328506    -4.3155805659
   54      H       0.7393430833     1.6615904888    -3.1485065991
   55      H      -0.6051384482    -0.7399400704    -3.7877117368
   56      H       0.1852483956    -1.1698461582    -2.2120844441
 ----------------------------------------------------------------

    9   -1510.2923482837      3.55E-09 Convergence criterion met
 Total energy in the final basis set = -1510.29234828
 Final energy is   -1510.29234828373
 **  OPTIMIZATION CONVERGED  **

                    Orbital Energies (a.u.)
 --------------------------------------------------------------

 Alpha MOs
 -- Occupied --
-18.943 -18.943 -18.923 -18.910 -18.888 -18.885 -18.885 -18.885
-18.864 -18.851 -10.110 -10.109 -10.091 -10.083 -10.083 -10.075
-10.058 -10.057 -10.056 -10.055 -10.055 -10.039 -10.038 -10.032
-10.030 -10.025 -10.018 -10.018 -10.017 -10.017  -1.025  -1.016
 -1.000  -0.990  -0.968  -0.966  -0.948  -0.943  -0.926  -0.915
 -0.762  -0.760  -0.729  -0.720  -0.714  -0.704  -0.695  -0.653
 -0.638  -0.621  -0.595  -0.580  -0.543  -0.543  -0.535  -0.534
 -0.514  -0.510  -0.486  -0.471  -0.465  -0.458  -0.449  -0.437
 -0.431  -0.430  -0.427  -0.409  -0.405  -0.405  -0.401  -0.398
 -0.389  -0.386  -0.376  -0.363  -0.360  -0.354  -0.347  -0.342
 -0.336  -0.335  -0.329  -0.328  -0.326  -0.320  -0.318  -0.314
 -0.309  -0.304  -0.302  -0.297  -0.293  -0.285  -0.279  -0.273
 -0.270  -0.262  -0.254  -0.243  -0.232  -0.231  -0.226  -0.193
 -0.177  -0.168  -0.166  -0.161  -0.148  -0.143  -0.141  -0.140
 -0.137

          Ground-State Mulliken Net Atomic Charges

     Atom                 Charge (a.u.)
  ----------------------------------------
      1 O                    -0.215260
      2 C                     0.210411
      3 C                    -0.081354
      4 C                    -0.077540
      5 C                     0.231707
      6 O                    -0.168115
      7 C                    -0.055386
      8 C                    -0.049648
      9 O                    -0.172701
     10 C                     0.215879
     11 C                    -0.077956
     12 C                    -0.080816
     13 C                     0.211567
     14 O                    -0.225511
     15 O                    -0.170517
     16 O                    -0.172210
     17 O                    -0.210909
     18 C                    -0.146606
     19 C                     0.024900
     20 C                    -0.143640
     21 C                    -0.144832
     22 C                     0.027575
     23 O                    -0.184850
     24 H                     0.084858
     25 H                     0.081762
     26 H                     0.087587
     27 H                     0.077495
     28 H                     0.072257
     29 H                     0.077459
     30 H                     0.072905
     31 H                     0.086249
     32 O                    -0.213379
     33 C                    -0.128493
     34 C                     0.026462
     35 C                    -0.144015
     36 C                    -0.144066
     37 C                     0.024039
     38 O                    -0.187670
     39 H                     0.085176
     40 H                     0.096105
     41 H                     0.087503
     42 H                     0.083639
     43 H                     0.077238
     44 H                     0.074332
     45 H                     0.077154
     46 H                     0.075023
     47 H                     0.090537
     48 H                     0.091514
     49 H                     0.088092
     50 H                     0.103877
     51 H                     0.088263
     52 H                     0.080964
     53 H                     0.091906
     54 H                     0.093844
     55 H                     0.088372
     56 H                     0.108823
  ----------------------------------------
  Sum of atomic charges =     0.000000

                    Cartesian Multipole Moments
 -----------------------------------------------------------------
    Charge (ESU x 10^10)
                -0.0000
    Dipole Moment (Debye)
         X       1.0942      Y       1.3713      Z      -2.3955
       Tot       2.9692
    Quadrupole Moments (Debye-Ang)
        XX    -146.9267     XY       1.3762     YY    -159.8317
        XZ      -5.2557     YZ       1.0425     ZZ    -155.4166

 Total job time:  111.28s(wall), 5303.94s(cpu)
        *  Thank you very much for using Q-Chem.  Have a nice day.  *
