 Q-Chem 5.0, Q-Chem, Inc., Pleasanton, CA (2017)
 Q-Chem 5.0.1 for Intel X86 EM64T Linux

User input:
--------------------------------------------------------------
$molecule
0  1
O -3.94934 -3.66094 2.70899
C -3.26408 -4.56952 2.26188
C -3.36658 -6.02376 2.66595
C -3.75323 -7.03163 1.57116
C -3.8206 -6.49862 0.15714
O -3.30793 -7.42001 -0.71097
C -3.33096 -6.9833 -2.07406
C -2.74501 -8.0604 -2.98106
O -3.72437 -8.47234 -3.94752
C -4.76579 -9.18724 -3.45405
C -5.8149 -9.49432 -4.49603
C -7.25326 -9.14141 -4.09001
C -7.39565 -8.22793 -2.88918
O -8.18027 -8.38851 -1.96552
O -2.33074 -4.27409 1.31734
O -6.73857 -7.03959 -2.9507
O -4.79447 -9.66436 -2.32592
C -6.96883 -5.98951 -2.08472
C -5.70947 -8.74144 -5.84385
C -6.4343 -9.53053 -6.9354
C -7.87851 -9.31103 -6.53555
C -7.69361 -8.36478 -5.346
O -6.54419 -7.62269 -5.68055
H -5.72278 -10.58729 -4.68656
H -7.88929 -10.03566 -3.90527
H -4.66873 -8.53593 -6.17303
H -6.25236 -9.0056 -7.90072
H -6.12425 -10.59316 -7.0333
H -8.39728 -8.78524 -7.36789
H -8.44062 -10.2283 -6.25607
H -8.62054 -7.7748 -5.17037
O -4.49762 -5.53359 -0.17491
C -2.11102 -3.01225 0.80673
C -2.02162 -6.59995 3.14308
C -2.26895 -7.7706 4.08942
C -2.78615 -8.80913 3.11824
C -2.61211 -8.0624 1.78849
O -1.49349 -7.23811 2.00576
H -4.10064 -6.05488 3.50361
H -4.7569 -7.46773 1.77187
H -1.80846 -2.31743 1.61899
H -1.36754 -5.84278 3.62893
H -1.27337 -8.09929 4.46536
H -2.93373 -7.55577 4.95359
H -2.11396 -9.69485 3.16557
H -3.84054 -9.12407 3.27483
H -2.51487 -8.81469 0.97748
H -3.03157 -2.63526 0.31182
H -1.29666 -3.06129 0.05518
H -6.29608 -5.14624 -2.34276
H -6.77796 -6.30738 -1.03846
H -8.02062 -5.64437 -2.17723
H -1.90837 -7.60491 -3.55341
H -2.31224 -8.92021 -2.42146
H -2.69568 -6.0714 -2.1602
H -4.34626 -6.70093 -2.407
$end

$opt
CONSTRAINT
tors           1           2           3           4    +118.138
tors           3           4           5           6    +140.431
tors           4           5           6           7    -179.695
tors           5           6           7           8    -180.000
tors           6           7           8           9    +120.412
tors           7           8           9          10     -70.335
tors           8           9          10          11    +175.354
tors           9          10          11          12    -129.400
tors          11          12          13          14    -134.937
ENDCONSTRAINT
$end

$rem
JOBTYPE                   OPT
METHOD                    B3LYP
DFT_D                     d3_op
BASIS                     STO-3G
GEOM_OPT_MAX_CYCLES       100
GEOM_OPT_TOL_GRADIENT     300
GEOM_OPT_TOL_DISPLACEMENT 1200
GEOM_OPT_TOL_ENERGY       100
SYMMETRY                  False
THRESH                    12
SCF_CONVERGENCE           8
MAX_SUB_FILE_NUM          128
MEM_STATIC                400
MEM_TOTAL                 4000
$end
--------------------------------------------------------------

   15   -1510.1566309849      7.02E-09 Convergence criterion met
 Total energy in the final basis set = -1510.15663098
   13   -1510.2255203482      9.46E-09 Convergence criterion met
 Total energy in the final basis set = -1510.22552035
   14   -1510.2616837547      6.67E-09 Convergence criterion met
 Total energy in the final basis set = -1510.26168375
   14   -1510.2753355900      5.60E-09 Convergence criterion met
 Total energy in the final basis set = -1510.27533559
   14   -1510.2800144189      5.82E-09 Convergence criterion met
 Total energy in the final basis set = -1510.28001442
   13   -1510.2822583667      9.24E-09 Convergence criterion met
 Total energy in the final basis set = -1510.28225837
   12   -1510.2835124037      9.86E-09 Convergence criterion met
 Total energy in the final basis set = -1510.28351240
   13   -1510.2843964117      3.46E-09 Convergence criterion met
   11   -1510.2854602312      9.67E-09 Convergence criterion met
 Total energy in the final basis set = -1510.28546023
   11   -1510.2854999927      5.69E-09 Convergence criterion met
 Total energy in the final basis set = -1510.28549999
   11   -1510.2855207800      5.12E-09 Convergence criterion met
 Total energy in the final basis set = -1510.28552078
   10   -1510.2855308307      6.70E-09 Convergence criterion met
 Total energy in the final basis set = -1510.28553083
    9   -1510.2855332260      8.61E-09 Convergence criterion met
 Total energy in the final basis set = -1510.28553323
    9   -1510.2855346852      4.99E-09 Convergence criterion met
 Total energy in the final basis set = -1510.28553469

             Standard Nuclear Orientation (Angstroms)
    I     Atom           X                Y                Z
 ----------------------------------------------------------------
    1      O       4.5529620013    -2.7983607350    -0.3296702099
    2      C       4.3285658658    -1.6309928111     0.0553770126
    3      C       4.2878406301    -0.3334751070    -0.8235530998
    4      C       2.8738783860     0.3875703461    -0.8196051414
    5      C       1.8055134953    -0.3758634075     0.0430405595
    6      O       1.0069112723     0.5594871332     0.7588305455
    7      C      -0.0041137904    -0.1465622306     1.5856328028
    8      C      -0.8325831977     0.9632819586     2.3340520874
    9      O      -2.2690262663     0.8807683019     1.9848464229
   10      C      -2.4751933547     1.2955616944     0.6288642588
   11      C      -3.9834505691     1.0881826632     0.2421806510
   12      C      -4.1812614171     0.2895496476    -1.1149190419
   13      C      -2.8896544968    -0.2365543949    -1.8304181848
   14      O      -2.6543625653    -0.1437385442    -3.0556257069
   15      O       4.0882745182    -1.2617120188     1.4201272304
   16      O      -2.0529434768    -0.9589811417    -0.9147390908
   17      O      -1.5791774723     1.7721830926    -0.1008095554
   18      C      -0.9368009032    -1.5871057042    -1.6667194106
   19      C      -4.7903810413     0.1737784653     1.2557321585
   20      C      -6.3328457807     0.3963313739     1.0005049623
   21      C      -6.5382723002    -0.4027832055    -0.3393241521
   22      C      -5.0734938190    -0.9305360843    -0.6055521702
   23      O      -4.5463719969    -1.1972597805     0.7504742396
   24      H      -4.4428400083     2.0908186033     0.1577146931
   25      H      -4.7253745041     0.8990210819    -1.8576667243
   26      H      -4.4568105808     0.2645122457     2.3066665551
   27      H      -6.9263518768    -0.0341012691     1.8226765064
   28      H      -6.5871951810     1.4637845599     0.9026699310
   29      H      -7.2309191079    -1.2486719528    -0.2033377863
   30      H      -6.9097648471     0.2288025804    -1.1620890812
   31      H      -5.0075095259    -1.8392516281    -1.2348509510
   32      O       1.6162540672    -1.6155817492     0.0669944664
   33      C       4.0079460014    -2.4761698237     2.2614955636
   34      C       5.2043158022     0.8247606812    -0.2348672682
   35      C       5.4119799045     1.9126377983    -1.3620993807
   36      C       4.0086735599     2.6253701986    -1.3581523510
   37      C       3.2559913436     1.8101409439    -0.2348764758
   38      O       4.3233980741     1.5005604053     0.7444546236
   39      H       4.5910251264    -0.6143757938    -1.8471968831
   40      H       2.4712890587     0.4692734384    -1.8469836263
   41      H       4.9159222881    -3.1051645282     2.1639923768
   42      H       6.1312620743     0.4710735414     0.2564460886
   43      H       6.2198453901     2.6078393671    -1.0834048996
   44      H       5.6569726821     1.4586771281    -2.3356451102
   45      H       4.0949655833     3.6850643701    -1.0701036218
   46      H       3.4951847173     2.5650019952    -2.3311270754
   47      H       2.4121755022     2.3312615891     0.2562587707
   48      H       3.1226597721    -3.0892153757     1.9926074270
   49      H       3.9102497611    -2.1214044097     3.3039567255
   50      H      -0.1719507485    -1.8918836808    -0.9240874744
   51      H      -0.4901950077    -0.8727979305    -2.3861333954
   52      H      -1.2928467074    -2.4743544878    -2.2285197076
   53      H      -0.7907401894     0.8208358768     3.4315161628
   54      H      -0.4103407204     1.9581112274     2.0720279940
   55      H       0.4985488826    -0.8310948351     2.3018920443
   56      H      -0.6937280011    -0.7455025949     0.9498933523
 ----------------------------------------------------------------

    9   -1510.2855351276      3.85E-09 Convergence criterion met
 Total energy in the final basis set = -1510.28553513
 Final energy is   -1510.28553512762
 **  OPTIMIZATION CONVERGED  **

                    Orbital Energies (a.u.)
 --------------------------------------------------------------

 Alpha MOs
 -- Occupied --
-18.943 -18.937 -18.930 -18.926 -18.889 -18.885 -18.876 -18.875
-18.870 -18.868 -10.105 -10.103 -10.096 -10.092 -10.078 -10.073
-10.061 -10.059 -10.058 -10.057 -10.056 -10.050 -10.040 -10.038
-10.037 -10.034 -10.021 -10.020 -10.019 -10.017  -1.021  -1.014
 -1.005  -1.003  -0.971  -0.968  -0.942  -0.938  -0.931  -0.929
 -0.764  -0.761  -0.728  -0.722  -0.715  -0.706  -0.695  -0.655
 -0.653  -0.618  -0.597  -0.582  -0.545  -0.544  -0.538  -0.536
 -0.517  -0.513  -0.490  -0.475  -0.469  -0.462  -0.443  -0.440
 -0.434  -0.431  -0.429  -0.413  -0.409  -0.406  -0.405  -0.400
 -0.394  -0.381  -0.369  -0.367  -0.363  -0.357  -0.349  -0.347
 -0.345  -0.340  -0.338  -0.331  -0.328  -0.322  -0.320  -0.309
 -0.308  -0.304  -0.304  -0.300  -0.296  -0.291  -0.285  -0.274
 -0.272  -0.259  -0.256  -0.246  -0.245  -0.235  -0.232  -0.184
 -0.179  -0.172  -0.169  -0.159  -0.157  -0.148  -0.145  -0.144
 -0.141

          Ground-State Mulliken Net Atomic Charges

     Atom                 Charge (a.u.)
  ----------------------------------------
      1 O                    -0.212271
      2 C                     0.210893
      3 C                    -0.080263
      4 C                    -0.077181
      5 C                     0.218530
      6 O                    -0.164247
      7 C                    -0.050748
      8 C                    -0.047481
      9 O                    -0.171269
     10 C                     0.212745
     11 C                    -0.078849
     12 C                    -0.079515
     13 C                     0.208801
     14 O                    -0.213632
     15 O                    -0.170941
     16 O                    -0.173232
     17 O                    -0.213445
     18 C                    -0.138703
     19 C                     0.023496
     20 C                    -0.144335
     21 C                    -0.143853
     22 C                     0.025927
     23 O                    -0.187674
     24 H                     0.084581
     25 H                     0.085776
     26 H                     0.092862
     27 H                     0.077878
     28 H                     0.072962
     29 H                     0.078250
     30 H                     0.074351
     31 H                     0.082945
     32 O                    -0.222613
     33 C                    -0.129135
     34 C                     0.026115
     35 C                    -0.144077
     36 C                    -0.144060
     37 C                     0.023640
     38 O                    -0.187558
     39 H                     0.084408
     40 H                     0.086484
     41 H                     0.088952
     42 H                     0.082992
     43 H                     0.077454
     44 H                     0.073677
     45 H                     0.077814
     46 H                     0.073984
     47 H                     0.093418
     48 H                     0.090352
     49 H                     0.087924
     50 H                     0.100881
     51 H                     0.089543
     52 H                     0.083300
     53 H                     0.091938
     54 H                     0.098710
     55 H                     0.088927
     56 H                     0.104570
  ----------------------------------------
  Sum of atomic charges =     0.000000

                    Cartesian Multipole Moments
 -----------------------------------------------------------------
    Charge (ESU x 10^10)
                 0.0000
    Dipole Moment (Debye)
         X      -1.3082      Y       1.6779      Z       1.0518
       Tot       2.3734
    Quadrupole Moments (Debye-Ang)
        XX    -145.2550     XY       0.9749     YY    -164.4112
        XZ      -3.5826     YZ      -2.2906     ZZ    -158.5089

 Total job time:  56.47s(wall), 2683.35s(cpu)
        *  Thank you very much for using Q-Chem.  Have a nice day.  *
