 Q-Chem 5.0, Q-Chem, Inc., Pleasanton, CA (2017)
 Q-Chem 5.0.1 for Intel X86 EM64T Linux

User input:
--------------------------------------------------------------
$molecule
0  1
O 4.2381070411 -2.9793785334 0.2976910138
C 4.0389123721 -1.7541145045 0.4402977418
C 4.5453555424 -0.598006025 -0.4914440389
C 3.4225140402 0.4516113024 -0.880125539
C 1.9832966798 -0.0225606991 -0.4652788155
O 1.1946166876 1.0898941043 -0.0530824091
C 0.0925977272 0.6439376542 0.8387887352
C -0.7230364382 1.9282445234 1.2439359665
O -2.178108139 1.6569660845 1.1882571886
C -2.5935382978 1.5108038802 -0.1758677525
C -4.1206440035 1.157191965 -0.2350922726
C -4.4119235176 -0.1890896733 -1.0255524462
C -3.184592172 -0.9958411086 -1.575596976
O -3.1324487261 -1.521259236 -2.7109978732
O 3.3768867881 -1.1703397222 1.5721825466
O -2.1793557374 -1.1727734648 -0.5655241009
O -1.8424068106 1.694116179 -1.1584700721
C -1.1787160657 -2.1777962958 -1.0214553729
C -4.7640343961 0.8284754274 1.1760005085
C -6.3367400355 0.8892952154 1.0357994272
C -6.6253703259 -0.4490555338 0.2602082739
C -5.1646658852 -1.0290137847 0.1022632511
O -4.4863835358 -0.6164053642 1.3497892941
H -4.6354978644 2.0025858754 -0.7285376255
H -5.0738377075 -0.0029290331 -1.8895567897
H -4.3345518588 1.4090355692 2.0140270323
H -6.8113636888 0.8906169238 2.0299153465
H -6.6712360374 1.7822712063 0.4840440318
H -7.2492320369 -1.1349629901 0.855255628
H -7.1124656429 -0.2824975507 -0.7137593954
H -5.1051024826 -2.1271201318 -0.0277615288
O 1.5798471903 -1.2113152792 -0.4906182741
C 2.8110748302 -2.2351469089 2.4292686496
C 5.5494970982 0.3521014574 0.2973417996
C 6.2526786534 1.3214355192 -0.7359457383
C 5.1069566034 2.3666681783 -1.007334513
C 3.9367671082 1.7577206568 -0.141324576
O 4.6383870402 1.239822473 1.0553304638
H 5.0120841809 -1.0546987742 -1.3813586266
H 3.4163343175 0.6097450304 -1.9753887457
H 3.5828417586 -2.9678512599 2.741017111
H 6.2354177245 -0.1783750639 0.9859805739
H 7.1365845484 1.7962852784 -0.2813045856
H 6.567032677 0.7902048024 -1.6485386319
H 5.3786490816 3.367425836 -0.6351331264
H 4.8428695754 2.4451664502 -2.0739829344
H 3.1288508461 2.4569134488 0.1474136762
H 1.9976359389 -2.7791812566 1.9056661937
H 2.4000895684 -1.7257478287 3.3202533036
H -1.3499987483 -3.1220486879 -0.4675054756
H -0.1535542619 -1.796290866 -0.804103149
H -1.313788532 -2.357590398 -2.1057196142
H -0.5156753104 2.2298908684 2.2888950039
H -0.4426728915 2.7556471613 0.5555920996
H 0.5155583152 0.133895282 1.7302036578
H -0.5995655239 -0.0591275648 0.32300105
$end

$rem
JOBTYPE                   OPT
METHOD                    B3LYP
DFT_D                     d3_op
BASIS                     STO-3G
GEOM_OPT_MAX_CYCLES       100
GEOM_OPT_TOL_GRADIENT     300
GEOM_OPT_TOL_DISPLACEMENT 1200
GEOM_OPT_TOL_ENERGY       100
SYMMETRY                  False
THRESH                    12
SCF_CONVERGENCE           8
MAX_SUB_FILE_NUM          128
MEM_STATIC                400
MEM_TOTAL                 4000
$end
--------------------------------------------------------------

   16   -1510.2832323321      5.58E-09 Convergence criterion met
 Total energy in the final basis set = -1510.28323233
   15   -1510.2812510971      2.19E-09 Convergence criterion met
 Total energy in the final basis set = -1510.28125110
   15   -1510.2832787116      2.39E-09 Convergence criterion met
 Total energy in the final basis set = -1510.28327871
   15   -1510.2853268927      2.68E-09 Convergence criterion met
 Total energy in the final basis set = -1510.28532689
   13   -1510.2856746295      8.89E-09 Convergence criterion met
 Total energy in the final basis set = -1510.28567463
   14   -1510.2857274791      4.04E-09 Convergence criterion met
 Total energy in the final basis set = -1510.28572748
   14   -1510.2858878067      5.64E-09 Convergence criterion met
 Total energy in the final basis set = -1510.28588781
   13   -1510.2862884637      8.85E-09 Convergence criterion met
   11   -1510.2889695586      5.62E-09 Convergence criterion met
 Total energy in the final basis set = -1510.28896956
   11   -1510.2889834693      6.10E-09 Convergence criterion met
 Total energy in the final basis set = -1510.28898347
   11   -1510.2890034359      6.38E-09 Convergence criterion met
 Total energy in the final basis set = -1510.28900344
   11   -1510.2890181387      5.88E-09 Convergence criterion met
 Total energy in the final basis set = -1510.28901814
    9   -1510.2890216053      9.33E-09 Convergence criterion met
 Total energy in the final basis set = -1510.28902161
    9   -1510.2890239519      5.24E-09 Convergence criterion met
 Total energy in the final basis set = -1510.28902395

             Standard Nuclear Orientation (Angstroms)
    I     Atom           X                Y                Z
 ----------------------------------------------------------------
    1      O       4.3250020663    -2.8393649321     1.4010619727
    2      C       3.9846342587    -1.6806810830     1.0801396702
    3      C       4.5324695781    -0.8253177346    -0.1088181011
    4      C       3.4070449726    -0.0733931967    -0.9430745268
    5      C       1.9526271029    -0.3540627727    -0.4088993608
    6      O       1.4087698782     0.8362206846     0.1546319065
    7      C       0.0550527845     0.5931072082     0.7108175510
    8      C      -0.5916200393     2.0019889027     0.9583745615
    9      O      -2.0535164450     1.8332822319     1.1341348133
   10      C      -2.6837566885     1.7360402573    -0.1493055302
   11      C      -4.1683839769     1.2524572818     0.0156691298
   12      C      -4.5029960144     0.0339781081    -0.9485741083
   13      C      -3.3519931867    -0.4084147933    -1.9192350740
   14      O      -3.4177749459    -0.4224077080    -3.1680344066
   15      O       3.0095559622    -0.9024909293     1.7874292237
   16      O      -2.2153649463    -0.8707374717    -1.1749204794
   17      O      -2.1113304078     1.9951127528    -1.2311171026
   18      C      -1.1901204300    -1.3989245548    -2.1107700218
   19      C      -4.4585374653     0.6047371963     1.4322031708
   20      C      -6.0207437885     0.4469129236     1.6066918243
   21      C      -6.3086047109    -0.7912083278     0.6800245660
   22      C      -4.8630513227    -1.0915466795     0.1189004937
   23      O      -3.9776836400    -0.7866840119     1.2648804441
   24      H      -4.8384023510     2.1071767787    -0.1928871016
   25      H      -5.3737885247     0.2694238878    -1.5855007116
   26      H      -3.9304740295     1.0991481144     2.2691396195
   27      H      -6.2720936995     0.2339073113     2.6577390472
   28      H      -6.5648660454     1.3508060546     1.2893473209
   29      H      -6.6804531761    -1.6510761458     1.2598011684
   30      H      -7.0301713704    -0.5673109159    -0.1216313257
   31      H      -4.6986108642    -2.1284215208    -0.2328676108
   32      O       1.3294252879    -1.4365913936    -0.5248165665
   33      C       2.3787491065    -1.7136450532     2.8533405726
   34      C       5.4007413608     0.4135388955     0.3927924808
   35      C       6.2503278673     0.9410504697    -0.8300935496
   36      C       5.1410693954     1.6665765178    -1.6776788049
   37      C       3.8647124775     1.4344279067    -0.7761592026
   38      O       4.3969940808     1.4779754766     0.6061869031
   39      H       5.1291488836    -1.4967046383    -0.7509679941
   40      H       3.4369393606    -0.3948090210    -2.0004177815
   41      H       3.1370316859    -2.2335155175     3.4723638579
   42      H       5.9746221356     0.2267882902     1.3213214633
   43      H       7.0226182203     1.6467774873    -0.4842916094
   44      H       6.7411667451     0.1216458547    -1.3792941210
   45      H       5.3499773028     2.7430903425    -1.7815923371
   46      H       5.0212396719     1.2305672826    -2.6823161305
   47      H       3.0509019506     2.1733558524    -0.9012068151
   48      H       1.6927072255    -2.4710415496     2.4207108189
   49      H       1.8022440566    -1.0074175054     3.4785933272
   50      H      -1.5224796842    -2.3564465262    -2.5597440277
   51      H      -0.2688608056    -1.5553306187    -1.5055211450
   52      H      -0.9896922362    -0.6787277274    -2.9288032017
   53      H      -0.2100554567     2.4685069581     1.8875065720
   54      H      -0.3767679642     2.6572451190     0.0870585210
   55      H       0.1258867368     0.0176422614     1.6580420176
   56      H      -0.5900398445     0.0227403683     0.0053561693
 ----------------------------------------------------------------

    9   -1510.2890246753      2.07E-09 Convergence criterion met
 Total energy in the final basis set = -1510.28902468
 Final energy is   -1510.28902467527
 **  OPTIMIZATION CONVERGED  **

                    Orbital Energies (a.u.)
 --------------------------------------------------------------

 Alpha MOs
 -- Occupied --
-18.939 -18.938 -18.937 -18.924 -18.890 -18.887 -18.880 -18.878
-18.872 -18.866 -10.106 -10.103 -10.102 -10.091 -10.073 -10.067
-10.065 -10.063 -10.059 -10.059 -10.057 -10.040 -10.039 -10.039
-10.039 -10.034 -10.022 -10.021 -10.020 -10.019  -1.019  -1.016
 -1.009  -1.000  -0.971  -0.969  -0.942  -0.939  -0.937  -0.926
 -0.765  -0.762  -0.728  -0.723  -0.714  -0.706  -0.694  -0.662
 -0.647  -0.616  -0.598  -0.580  -0.548  -0.544  -0.539  -0.536
 -0.518  -0.511  -0.489  -0.477  -0.469  -0.465  -0.450  -0.439
 -0.434  -0.432  -0.426  -0.415  -0.414  -0.409  -0.401  -0.398
 -0.392  -0.380  -0.372  -0.369  -0.364  -0.358  -0.350  -0.347
 -0.343  -0.340  -0.334  -0.332  -0.329  -0.326  -0.318  -0.310
 -0.308  -0.306  -0.303  -0.301  -0.298  -0.292  -0.289  -0.277
 -0.271  -0.257  -0.254  -0.251  -0.240  -0.235  -0.233  -0.181
 -0.179  -0.176  -0.167  -0.160  -0.159  -0.151  -0.145  -0.144
 -0.142

          Ground-State Mulliken Net Atomic Charges

     Atom                 Charge (a.u.)
  ----------------------------------------
      1 O                    -0.208711
      2 C                     0.210454
      3 C                    -0.079625
      4 C                    -0.077779
      5 C                     0.222225
      6 O                    -0.166977
      7 C                    -0.052912
      8 C                    -0.048693
      9 O                    -0.171128
     10 C                     0.213045
     11 C                    -0.078190
     12 C                    -0.080285
     13 C                     0.208617
     14 O                    -0.212426
     15 O                    -0.166911
     16 O                    -0.175707
     17 O                    -0.214050
     18 C                    -0.145236
     19 C                     0.023378
     20 C                    -0.144724
     21 C                    -0.143723
     22 C                     0.025843
     23 O                    -0.188218
     24 H                     0.085295
     25 H                     0.084762
     26 H                     0.091857
     27 H                     0.077650
     28 H                     0.072968
     29 H                     0.077722
     30 H                     0.074074
     31 H                     0.083732
     32 O                    -0.226796
     33 C                    -0.129408
     34 C                     0.026063
     35 C                    -0.143454
     36 C                    -0.144538
     37 C                     0.025246
     38 O                    -0.186030
     39 H                     0.086344
     40 H                     0.084875
     41 H                     0.093844
     42 H                     0.083014
     43 H                     0.078314
     44 H                     0.074416
     45 H                     0.078235
     46 H                     0.073729
     47 H                     0.091325
     48 H                     0.091710
     49 H                     0.090631
     50 H                     0.079599
     51 H                     0.108534
     52 H                     0.085989
     53 H                     0.091446
     54 H                     0.099046
     55 H                     0.085867
     56 H                     0.105669
  ----------------------------------------
  Sum of atomic charges =     0.000000

                    Cartesian Multipole Moments
 -----------------------------------------------------------------
    Charge (ESU x 10^10)
                 0.0000
    Dipole Moment (Debye)
         X      -0.0698      Y       1.2718      Z       1.0060
       Tot       1.6231
    Quadrupole Moments (Debye-Ang)
        XX    -140.3439     XY       2.1315     YY    -165.0466
        XZ     -11.5179     YZ       1.5255     ZZ    -162.3476

 Total job time:  135.51s(wall), 6463.69s(cpu)
        *  Thank you very much for using Q-Chem.  Have a nice day.  *
