 Q-Chem 5.0, Q-Chem, Inc., Pleasanton, CA (2017)
 Q-Chem 5.0.1 for Intel X86 EM64T Linux

User input:
--------------------------------------------------------------
$molecule
0  1
O -3.94934 -3.66094 2.70899
C -3.26408 -4.56952 2.26188
C -3.36658 -6.02376 2.66595
C -3.42187 -7.06479 1.53588
C -3.18968 -6.54989 0.13265
O -2.50801 -7.48196 -0.59675
C -1.79635 -6.91988 -1.70438
C -1.06236 -8.01676 -2.46874
O -1.21148 -7.81188 -3.88248
C -2.45427 -8.03696 -4.37641
C -2.56207 -7.74421 -5.85402
C -3.64705 -6.72631 -6.23478
C -4.20695 -5.89971 -5.09463
O -5.38845 -5.6363 -4.92366
O -2.22613 -4.24536 1.44346
O -3.298 -5.22501 -4.34006
O -3.379 -8.51792 -3.7317
C -3.62051 -4.21957 -3.45076
C -1.32683 -7.10341 -6.53268
C -1.35703 -7.3848 -8.03583
C -2.49115 -6.48138 -8.47226
C -2.82162 -5.79496 -7.14399
O -1.58057 -5.72249 -6.48271
H -2.75527 -8.72989 -6.33399
H -4.50863 -7.17924 -6.77395
H -0.35285 -7.44142 -6.11876
H -0.4078 -6.99153 -8.46574
H -1.46783 -8.45506 -8.31356
H -2.09014 -5.74052 -9.19935
H -3.37414 -6.99965 -8.90494
H -3.33421 -4.8241 -7.32519
O -3.83065 -5.63912 -0.37379
C -1.94706 -2.96898 1.00255
C -2.10608 -6.48752 3.42394
C -2.45349 -7.66386 4.33073
C -2.6839 -8.74743 3.30161
C -2.28372 -8.00372 2.01971
O -1.30167 -7.09275 2.44264
H -4.2406 -6.10068 3.35231
H -4.40826 -7.57832 1.51193
H -1.73878 -2.30196 1.86616
H -1.62635 -5.67749 4.0167
H -1.53175 -7.90918 4.90605
H -3.29242 -7.49608 5.03988
H -1.98251 -9.58476 3.51465
H -3.7256 -9.13019 3.23886
H -1.959 -8.75514 1.26951
H -2.80368 -2.57185 0.41705
H -1.05134 -2.99864 0.34889
H -2.69592 -3.8615 -2.95303
H -4.32445 -4.59731 -2.68121
H -4.08827 -3.36967 -3.99185
H 0.00741 -8.02618 -2.17132
H -1.46815 -9.02279 -2.21305
H -1.09318 -6.1087 -1.40946
H -2.56047 -6.47103 -2.3603
$end

$opt
CONSTRAINT
tors           1           2           3           4    +132.204
tors           3           4           5           6    +144.477
tors           4           5           6           7    -156.688
tors           5           6           7           8    -180.000
tors           6           7           8           9    +137.296
tors           7           8           9          10     -70.335
tors           8           9          10          11    +177.371
tors           9          10          11          12    -123.712
tors          11          12          13          14    -137.218
ENDCONSTRAINT
$end

$rem
JOBTYPE                   OPT
METHOD                    B3LYP
DFT_D                     d3_op
BASIS                     STO-3G
GEOM_OPT_MAX_CYCLES       100
GEOM_OPT_TOL_GRADIENT     300
GEOM_OPT_TOL_DISPLACEMENT 1200
GEOM_OPT_TOL_ENERGY       100
SYMMETRY                  False
THRESH                    12
SCF_CONVERGENCE           8
MAX_SUB_FILE_NUM          128
MEM_STATIC                400
MEM_TOTAL                 4000
$end
--------------------------------------------------------------

   16   -1510.1457589226      1.78E-09 Convergence criterion met
 Total energy in the final basis set = -1510.14575892
   14   -1510.2155896784      5.33E-09 Convergence criterion met
 Total energy in the final basis set = -1510.21558968
   14   -1510.2531523982      6.80E-09 Convergence criterion met
 Total energy in the final basis set = -1510.25315240
   14   -1510.2688817584      6.04E-09 Convergence criterion met
 Total energy in the final basis set = -1510.26888176
    2   -1510.2688817583      2.69E-09 Convergence criterion met
 Total energy in the final basis set = -1510.26888176
   14   -1510.2708185745      6.19E-09 Convergence criterion met
 Total energy in the final basis set = -1510.27081857
   14   -1510.2751926413      3.82E-09 Convergence criterion met
 Total energy in the final basis set = -1510.27519264
   12   -1510.2766730465      8.47E-09 Convergence criterion met
   10   -1510.2832180749      7.03E-09 Convergence criterion met
 Total energy in the final basis set = -1510.28321807
   11   -1510.2832274057      1.88E-09 Convergence criterion met
 Total energy in the final basis set = -1510.28322741
    9   -1510.2832365922      9.66E-09 Convergence criterion met
 Total energy in the final basis set = -1510.28323659
    9   -1510.2832438522      6.78E-09 Convergence criterion met
 Total energy in the final basis set = -1510.28324385
    9   -1510.2832480434      3.55E-09 Convergence criterion met
 Total energy in the final basis set = -1510.28324804
    9   -1510.2832500594      3.99E-09 Convergence criterion met
 Total energy in the final basis set = -1510.28325006

             Standard Nuclear Orientation (Angstroms)
    I     Atom           X                Y                Z
 ----------------------------------------------------------------
    1      O       4.2381070411    -2.9793785334     0.2976910138
    2      C       4.0389123721    -1.7541145045     0.4402977418
    3      C       4.5453555424    -0.5980060250    -0.4914440389
    4      C       3.4225140402     0.4516113024    -0.8801255390
    5      C       1.9832966798    -0.0225606991    -0.4652788155
    6      O       1.1946166876     1.0898941043    -0.0530824091
    7      C       0.0925977272     0.6439376542     0.8387887352
    8      C      -0.7230364382     1.9282445234     1.2439359665
    9      O      -2.1781081390     1.6569660845     1.1882571886
   10      C      -2.5935382978     1.5108038802    -0.1758677525
   11      C      -4.1206440035     1.1571919650    -0.2350922726
   12      C      -4.4119235176    -0.1890896733    -1.0255524462
   13      C      -3.1845921720    -0.9958411086    -1.5755969760
   14      O      -3.1324487261    -1.5212592360    -2.7109978732
   15      O       3.3768867881    -1.1703397222     1.5721825466
   16      O      -2.1793557374    -1.1727734648    -0.5655241009
   17      O      -1.8424068106     1.6941161790    -1.1584700721
   18      C      -1.1787160657    -2.1777962958    -1.0214553729
   19      C      -4.7640343961     0.8284754274     1.1760005085
   20      C      -6.3367400355     0.8892952154     1.0357994272
   21      C      -6.6253703259    -0.4490555338     0.2602082739
   22      C      -5.1646658852    -1.0290137847     0.1022632511
   23      O      -4.4863835358    -0.6164053642     1.3497892941
   24      H      -4.6354978644     2.0025858754    -0.7285376255
   25      H      -5.0738377075    -0.0029290331    -1.8895567897
   26      H      -4.3345518588     1.4090355692     2.0140270323
   27      H      -6.8113636888     0.8906169238     2.0299153465
   28      H      -6.6712360374     1.7822712063     0.4840440318
   29      H      -7.2492320369    -1.1349629901     0.8552556280
   30      H      -7.1124656429    -0.2824975507    -0.7137593954
   31      H      -5.1051024826    -2.1271201318    -0.0277615288
   32      O       1.5798471903    -1.2113152792    -0.4906182741
   33      C       2.8110748302    -2.2351469089     2.4292686496
   34      C       5.5494970982     0.3521014574     0.2973417996
   35      C       6.2526786534     1.3214355192    -0.7359457383
   36      C       5.1069566034     2.3666681783    -1.0073345130
   37      C       3.9367671082     1.7577206568    -0.1413245760
   38      O       4.6383870402     1.2398224730     1.0553304638
   39      H       5.0120841809    -1.0546987742    -1.3813586266
   40      H       3.4163343175     0.6097450304    -1.9753887457
   41      H       3.5828417586    -2.9678512599     2.7410171110
   42      H       6.2354177245    -0.1783750639     0.9859805739
   43      H       7.1365845484     1.7962852784    -0.2813045856
   44      H       6.5670326770     0.7902048024    -1.6485386319
   45      H       5.3786490816     3.3674258360    -0.6351331264
   46      H       4.8428695754     2.4451664502    -2.0739829344
   47      H       3.1288508461     2.4569134488     0.1474136762
   48      H       1.9976359389    -2.7791812566     1.9056661937
   49      H       2.4000895684    -1.7257478287     3.3202533036
   50      H      -1.3499987483    -3.1220486879    -0.4675054756
   51      H      -0.1535542619    -1.7962908660    -0.8041031490
   52      H      -1.3137885320    -2.3575903980    -2.1057196142
   53      H      -0.5156753104     2.2298908684     2.2888950039
   54      H      -0.4426728915     2.7556471613     0.5555920996
   55      H       0.5155583152     0.1338952820     1.7302036578
   56      H      -0.5995655239    -0.0591275648     0.3230010500
 ----------------------------------------------------------------

    9   -1510.2832497415      2.88E-09 Convergence criterion met
 Total energy in the final basis set = -1510.28324974
 Final energy is   -1510.28324974150
 **  OPTIMIZATION CONVERGED  **

                    Orbital Energies (a.u.)
 --------------------------------------------------------------

 Alpha MOs
 -- Occupied --
-18.941 -18.937 -18.928 -18.926 -18.889 -18.888 -18.887 -18.874
-18.870 -18.870 -10.112 -10.101 -10.095 -10.094 -10.076 -10.070
-10.062 -10.061 -10.060 -10.059 -10.058 -10.041 -10.039 -10.037
-10.037 -10.031 -10.022 -10.021 -10.020 -10.020  -1.021  -1.014
 -1.004  -1.002  -0.971  -0.970  -0.946  -0.938  -0.931  -0.928
 -0.765  -0.762  -0.728  -0.723  -0.715  -0.707  -0.695  -0.657
 -0.645  -0.617  -0.598  -0.583  -0.547  -0.544  -0.539  -0.537
 -0.519  -0.511  -0.489  -0.475  -0.468  -0.461  -0.447  -0.441
 -0.434  -0.433  -0.428  -0.415  -0.411  -0.408  -0.406  -0.399
 -0.390  -0.382  -0.370  -0.367  -0.362  -0.357  -0.351  -0.345
 -0.342  -0.338  -0.337  -0.331  -0.330  -0.323  -0.319  -0.315
 -0.308  -0.306  -0.304  -0.303  -0.297  -0.292  -0.285  -0.277
 -0.272  -0.259  -0.254  -0.247  -0.239  -0.235  -0.234  -0.183
 -0.180  -0.171  -0.170  -0.159  -0.157  -0.148  -0.147  -0.144
 -0.143

          Ground-State Mulliken Net Atomic Charges

     Atom                 Charge (a.u.)
  ----------------------------------------
      1 O                    -0.212198
      2 C                     0.212084
      3 C                    -0.079089
      4 C                    -0.077990
      5 C                     0.225764
      6 O                    -0.169601
      7 C                    -0.053763
      8 C                    -0.047539
      9 O                    -0.169683
     10 C                     0.212644
     11 C                    -0.078835
     12 C                    -0.078773
     13 C                     0.209320
     14 O                    -0.213359
     15 O                    -0.171929
     16 O                    -0.176735
     17 O                    -0.214990
     18 C                    -0.155653
     19 C                     0.023963
     20 C                    -0.144404
     21 C                    -0.143783
     22 C                     0.025982
     23 O                    -0.187384
     24 H                     0.085047
     25 H                     0.085936
     26 H                     0.092011
     27 H                     0.077795
     28 H                     0.073007
     29 H                     0.078063
     30 H                     0.074425
     31 H                     0.082954
     32 O                    -0.213738
     33 C                    -0.129326
     34 C                     0.025830
     35 C                    -0.144475
     36 C                    -0.143251
     37 C                     0.024024
     38 O                    -0.187098
     39 H                     0.086187
     40 H                     0.086498
     41 H                     0.090004
     42 H                     0.083136
     43 H                     0.078172
     44 H                     0.074352
     45 H                     0.078055
     46 H                     0.073993
     47 H                     0.091409
     48 H                     0.090141
     49 H                     0.087829
     50 H                     0.076567
     51 H                     0.108415
     52 H                     0.095646
     53 H                     0.091500
     54 H                     0.097156
     55 H                     0.086645
     56 H                     0.109044
  ----------------------------------------
  Sum of atomic charges =    -0.000000

                    Cartesian Multipole Moments
 -----------------------------------------------------------------
    Charge (ESU x 10^10)
                 0.0000
    Dipole Moment (Debye)
         X      -0.4544      Y       2.2994      Z       0.9418
       Tot       2.5260
    Quadrupole Moments (Debye-Ang)
        XX    -140.4509     XY       1.9290     YY    -162.4004
        XZ      -5.9143     YZ      -3.5912     ZZ    -163.6602

 Total job time:  99.24s(wall), 4728.49s(cpu)
        *  Thank you very much for using Q-Chem.  Have a nice day.  *
