 Q-Chem 5.0, Q-Chem, Inc., Pleasanton, CA (2017)
 Q-Chem 5.0.1 for Intel X86 EM64T Linux

User input:
--------------------------------------------------------------
$molecule
0  1
O -3.94934 -3.66094 2.70899
C -3.26408 -4.56952 2.26188
C -3.36658 -6.02376 2.66595
C -3.50501 -7.05854 1.53727
C -3.34697 -6.54101 0.12473
O -2.98902 -7.56368 -0.7068
C -2.68311 -7.12815 -2.0357
C -2.27981 -8.31881 -2.8993
O -3.17388 -8.43784 -4.01704
C -4.3689 -9.02001 -3.74844
C -5.33026 -8.9537 -4.91121
C -6.71205 -8.37331 -4.57639
C -6.81506 -7.62961 -3.25996
O -7.48685 -7.97792 -2.29978
O -2.19485 -4.23566 1.48659
O -6.08571 -6.4883 -3.14471
O -4.61527 -9.6331 -2.71694
C -6.19327 -5.61246 -2.085
C -4.94577 -8.05353 -6.11177
C -5.66522 -8.54032 -7.37064
C -7.09203 -8.13057 -7.06337
C -6.88612 -7.38537 -5.74085
O -5.59623 -6.83077 -5.86113
H -5.42253 -10.00357 -5.27071
H -7.48492 -9.17367 -4.54774
H -3.85445 -7.99907 -6.31147
H -5.2951 -7.91885 -8.21769
H -5.52221 -9.61406 -7.6185
H -7.43597 -7.43205 -7.85823
H -7.81413 -8.96849 -6.95318
H -7.71489 -6.66602 -5.55896
O -3.63992 -5.41747 -0.26433
C -1.88252 -2.95 1.09669
C -2.07944 -6.48904 3.36542
C -2.36989 -7.70627 4.2397
C -2.5689 -8.76467 3.17986
C -2.28366 -7.94864 1.91375
O -1.30838 -7.02409 2.32324
H -4.2195 -6.08933 3.37875
H -4.43724 -7.66434 1.57254
H -1.69094 -2.31543 1.98832
H -1.59838 -5.68836 3.96991
H -1.44228 -7.94255 4.80873
H -3.21606 -7.57736 4.94851
H -1.78404 -9.5427 3.31357
H -3.57289 -9.24097 3.16149
H -1.96772 -8.65025 1.11284
H -2.71409 -2.51907 0.49915
H -0.96675 -2.97259 0.4712
H -5.47957 -4.77582 -2.2291
H -5.96474 -6.13373 -1.13225
H -7.22286 -5.19806 -2.03826
H -1.28528 -8.07855 -3.33353
H -2.13679 -9.26905 -2.33684
H -1.81897 -6.42547 -1.9821
H -3.52978 -6.57978 -2.50173
$end

$opt
CONSTRAINT
tors           1           2           3           4    +128.710
tors           3           4           5           6    +157.153
tors           4           5           6           7    -173.814
tors           5           6           7           8    +179.425
tors           6           7           8           9    +120.412
tors           7           8           9          10     -79.372
tors           8           9          10          11    +172.459
tors           9          10          11          12    -127.603
tors          11          12          13          14    -114.598
ENDCONSTRAINT
$end

$rem
JOBTYPE                   OPT
METHOD                    B3LYP
DFT_D                     d3_op
BASIS                     STO-3G
GEOM_OPT_MAX_CYCLES       100
GEOM_OPT_TOL_GRADIENT     300
GEOM_OPT_TOL_DISPLACEMENT 1200
GEOM_OPT_TOL_ENERGY       100
SYMMETRY                  False
THRESH                    12
SCF_CONVERGENCE           8
MAX_SUB_FILE_NUM          128
MEM_STATIC                400
MEM_TOTAL                 4000
$end
--------------------------------------------------------------

   15   -1510.1548281456      8.14E-09 Convergence criterion met
 Total energy in the final basis set = -1510.15482815
   14   -1510.2237877158      4.62E-09 Convergence criterion met
 Total energy in the final basis set = -1510.22378772
   14   -1510.2594093193      1.78E-09 Convergence criterion met
 Total energy in the final basis set = -1510.25940932
   14   -1510.2714870344      2.49E-09 Convergence criterion met
 Total energy in the final basis set = -1510.27148703
   14   -1510.2787029195      2.21E-09 Convergence criterion met
 Total energy in the final basis set = -1510.27870292
   13   -1510.2805363778      4.96E-09 Convergence criterion met
 Total energy in the final basis set = -1510.28053638
   13   -1510.2821673990      4.37E-09 Convergence criterion met
 Total energy in the final basis set = -1510.28216740
   12   -1510.2830225722      9.69E-09 Convergence criterion met
   11   -1510.2845752747      6.47E-09 Convergence criterion met
 Total energy in the final basis set = -1510.28457527
   11   -1510.2846386983      6.72E-09 Convergence criterion met
 Total energy in the final basis set = -1510.28463870
   11   -1510.2846890640      5.23E-09 Convergence criterion met
 Total energy in the final basis set = -1510.28468906
   11   -1510.2847235028      3.30E-09 Convergence criterion met
 Total energy in the final basis set = -1510.28472350
   11   -1510.2847319405      2.87E-09 Convergence criterion met
 Total energy in the final basis set = -1510.28473194
   10   -1510.2847373327      8.92E-09 Convergence criterion met
 Total energy in the final basis set = -1510.28473733

             Standard Nuclear Orientation (Angstroms)
    I     Atom           X                Y                Z
 ----------------------------------------------------------------
    1      O       4.4185212194    -2.9679720409    -0.0797258961
    2      C       4.1994747166    -1.7726462540     0.2133458699
    3      C       4.1793247422    -0.5540403164    -0.7770833301
    4      C       2.8820744151     0.3476654437    -0.6760219403
    5      C       1.7599266239    -0.2817592311     0.2201293362
    6      O       0.9010607676     0.7556159349     0.6870429259
    7      C      -0.0875402310     0.2222807937     1.6590162768
    8      C      -0.9647207822     1.4492286331     2.1140224120
    9      O      -2.3968516947     1.2470877531     1.8019144750
   10      C      -2.6589988725     1.5197174552     0.4210799492
   11      C      -4.1390332893     1.1129220565     0.0755151646
   12      C      -4.2257681344     0.1487240863    -1.1847170822
   13      C      -2.8523289979    -0.1646454926    -1.8702884181
   14      O      -2.5008987187     0.1686967621    -3.0227988954
   15      O       4.0667900317    -1.2841304657     1.5554513217
   16      O      -2.0418160248    -0.9408629169    -0.9781000588
   17      O      -1.8134986151     1.9864965416    -0.3731109180
   18      C      -0.7755736673    -1.3069437952    -1.6547452663
   19      C      -4.8198168887     0.2139758534     1.1885568161
   20      C      -6.3731172920     0.1512311320     0.9067373660
   21      C      -6.4249444672    -0.8461546466    -0.3088032705
   22      C      -4.8878457083    -1.1394361852    -0.5235602237
   23      O      -4.3433858353    -1.1478520011     0.8528130615
   24      H      -4.7126572683     2.0404497520    -0.1094546587
   25      H      -4.8801708323     0.5813630371    -1.9615448590
   26      H      -4.5321268432     0.4819859498     2.2224460218
   27      H      -6.9080355632    -0.2490643318     1.7825186910
   28      H      -6.7899162351     1.1412761217     0.6616316092
   29      H      -6.9578407363    -1.7741298412    -0.0468595343
   30      H      -6.8959344386    -0.4075666124    -1.2030132315
   31      H      -4.6545926463    -2.0912979680    -1.0387159518
   32      O       1.5815724888    -1.4994330410     0.4562309784
   33      C       4.0385890644    -2.4229606094     2.4994709377
   34      C       5.2903428451     0.5119757432    -0.3785497175
   35      C       5.4443848285     1.5575249746    -1.5541676307
   36      C       4.1677343939     2.4540658430    -1.3400987855
   37      C       3.4830546133     1.7112697824    -0.1270653969
   38      O       4.6348723105     1.2860911092     0.7006039733
   39      H       4.3252615483    -0.9486539547    -1.7975311467
   40      H       2.4425730852     0.5021790439    -1.6798622414
   41      H       4.9272672268    -3.0758507474     2.3823068805
   42      H       6.2389277159     0.0701725623    -0.0166363116
   43      H       6.3726653716     2.1382258500    -1.4339266285
   44      H       5.4590367111     1.0684115945    -2.5413513147
   45      H       4.4404966778     3.4828133593    -1.0552293831
   46      H       3.5177359243     2.4933767231    -2.2286785127
   47      H       2.7684194973     2.3118450548     0.4679049793
   48      H       3.1264178202    -3.0383535407     2.3556672223
   49      H       4.0310385378    -1.9813372430     3.5129261369
   50      H      -0.1432592312    -1.7999436733    -0.8918044276
   51      H      -0.2531933301    -0.4091919717    -2.0430229860
   52      H      -0.9563009903    -2.0014657845    -2.5001860718
   53      H      -0.9185421093     1.5781700828     3.2132649695
   54      H      -0.5733526436     2.3622665168     1.6144449052
   55      H       0.4330626279    -0.2461973366     2.5213822135
   56      H      -0.7391825712    -0.5449543335     1.1827694178
 ----------------------------------------------------------------

    9   -1510.2847379685      3.02E-09 Convergence criterion met
 Total energy in the final basis set = -1510.28473797
 Final energy is   -1510.28473796854
 **  OPTIMIZATION CONVERGED  **

                    Orbital Energies (a.u.)
 --------------------------------------------------------------

 Alpha MOs
 -- Occupied --
-18.941 -18.940 -18.929 -18.922 -18.887 -18.887 -18.879 -18.879
-18.871 -18.863 -10.106 -10.104 -10.095 -10.090 -10.079 -10.075
-10.060 -10.059 -10.058 -10.058 -10.055 -10.054 -10.040 -10.039
-10.036 -10.034 -10.021 -10.020 -10.019 -10.018  -1.021  -1.015
 -1.005  -1.000  -0.970  -0.969  -0.944  -0.940  -0.931  -0.925
 -0.764  -0.762  -0.729  -0.722  -0.716  -0.706  -0.695  -0.655
 -0.653  -0.619  -0.597  -0.582  -0.546  -0.545  -0.537  -0.537
 -0.517  -0.513  -0.490  -0.475  -0.470  -0.462  -0.443  -0.440
 -0.433  -0.432  -0.430  -0.412  -0.409  -0.405  -0.404  -0.402
 -0.396  -0.380  -0.371  -0.368  -0.363  -0.352  -0.350  -0.348
 -0.346  -0.340  -0.336  -0.331  -0.329  -0.323  -0.321  -0.312
 -0.309  -0.305  -0.304  -0.300  -0.293  -0.291  -0.283  -0.274
 -0.273  -0.259  -0.257  -0.247  -0.243  -0.234  -0.233  -0.185
 -0.181  -0.173  -0.165  -0.160  -0.158  -0.147  -0.144  -0.143
 -0.141

          Ground-State Mulliken Net Atomic Charges

     Atom                 Charge (a.u.)
  ----------------------------------------
      1 O                    -0.216313
      2 C                     0.211873
      3 C                    -0.080039
      4 C                    -0.078561
      5 C                     0.217742
      6 O                    -0.168797
      7 C                    -0.050147
      8 C                    -0.048607
      9 O                    -0.170626
     10 C                     0.211742
     11 C                    -0.077699
     12 C                    -0.080362
     13 C                     0.208998
     14 O                    -0.211417
     15 O                    -0.170432
     16 O                    -0.172721
     17 O                    -0.211930
     18 C                    -0.135048
     19 C                     0.023516
     20 C                    -0.144727
     21 C                    -0.143715
     22 C                     0.026078
     23 O                    -0.187612
     24 H                     0.084895
     25 H                     0.084810
     26 H                     0.092047
     27 H                     0.077803
     28 H                     0.072850
     29 H                     0.077975
     30 H                     0.073894
     31 H                     0.083920
     32 O                    -0.217012
     33 C                    -0.128508
     34 C                     0.026192
     35 C                    -0.144635
     36 C                    -0.143064
     37 C                     0.024774
     38 O                    -0.186657
     39 H                     0.084558
     40 H                     0.085709
     41 H                     0.088329
     42 H                     0.082942
     43 H                     0.077824
     44 H                     0.074068
     45 H                     0.077911
     46 H                     0.074473
     47 H                     0.089973
     48 H                     0.089871
     49 H                     0.087313
     50 H                     0.098136
     51 H                     0.087613
     52 H                     0.084911
     53 H                     0.091346
     54 H                     0.101504
     55 H                     0.089858
     56 H                     0.103181
  ----------------------------------------
  Sum of atomic charges =    -0.000000

                    Cartesian Multipole Moments
 -----------------------------------------------------------------
    Charge (ESU x 10^10)
                -0.0000
    Dipole Moment (Debye)
         X      -1.4918      Y       1.6079      Z       0.8360
       Tot       2.3473
    Quadrupole Moments (Debye-Ang)
        XX    -145.1397     XY       2.6561     YY    -165.3601
        XZ      -4.2975     YZ       1.1537     ZZ    -158.1007

 Total job time:  53.95s(wall), 2567.40s(cpu)
        *  Thank you very much for using Q-Chem.  Have a nice day.  *
