 Q-Chem 5.0, Q-Chem, Inc., Pleasanton, CA (2017)
 Q-Chem 5.0.1 for Intel X86 EM64T Linux

User input:
--------------------------------------------------------------
$molecule
0  1
O 4.4185212194 -2.9679720409 -0.0797258961
C 4.1994747166 -1.772646254 0.2133458699
C 4.1793247422 -0.5540403164 -0.7770833301
C 2.8820744151 0.3476654437 -0.6760219403
C 1.7599266239 -0.2817592311 0.2201293362
O 0.9010607676 0.7556159349 0.6870429259
C -0.087540231 0.2222807937 1.6590162768
C -0.9647207822 1.4492286331 2.114022412
O -2.3968516947 1.2470877531 1.801914475
C -2.6589988725 1.5197174552 0.4210799492
C -4.1390332893 1.1129220565 0.0755151646
C -4.2257681344 0.1487240863 -1.1847170822
C -2.8523289979 -0.1646454926 -1.8702884181
O -2.5008987187 0.1686967621 -3.0227988954
O 4.0667900317 -1.2841304657 1.5554513217
O -2.0418160248 -0.9408629169 -0.9781000588
O -1.8134986151 1.9864965416 -0.373110918
C -0.7755736673 -1.3069437952 -1.6547452663
C -4.8198168887 0.2139758534 1.1885568161
C -6.373117292 0.151231132 0.906737366
C -6.4249444672 -0.8461546466 -0.3088032705
C -4.8878457083 -1.1394361852 -0.5235602237
O -4.3433858353 -1.1478520011 0.8528130615
H -4.7126572683 2.040449752 -0.1094546587
H -4.8801708323 0.5813630371 -1.961544859
H -4.5321268432 0.4819859498 2.2224460218
H -6.9080355632 -0.2490643318 1.782518691
H -6.7899162351 1.1412761217 0.6616316092
H -6.9578407363 -1.7741298412 -0.0468595343
H -6.8959344386 -0.4075666124 -1.2030132315
H -4.6545926463 -2.091297968 -1.0387159518
O 1.5815724888 -1.499433041 0.4562309784
C 4.0385890644 -2.4229606094 2.4994709377
C 5.2903428451 0.5119757432 -0.3785497175
C 5.4443848285 1.5575249746 -1.5541676307
C 4.1677343939 2.454065843 -1.3400987855
C 3.4830546133 1.7112697824 -0.1270653969
O 4.6348723105 1.2860911092 0.7006039733
H 4.3252615483 -0.9486539547 -1.7975311467
H 2.4425730852 0.5021790439 -1.6798622414
H 4.9272672268 -3.0758507474 2.3823068805
H 6.2389277159 0.0701725623 -0.0166363116
H 6.3726653716 2.13822585 -1.4339266285
H 5.4590367111 1.0684115945 -2.5413513147
H 4.4404966778 3.4828133593 -1.0552293831
H 3.5177359243 2.4933767231 -2.2286785127
H 2.7684194973 2.3118450548 0.4679049793
H 3.1264178202 -3.0383535407 2.3556672223
H 4.0310385378 -1.981337243 3.5129261369
H -0.1432592312 -1.7999436733 -0.8918044276
H -0.2531933301 -0.4091919717 -2.043022986
H -0.9563009903 -2.0014657845 -2.5001860718
H -0.9185421093 1.5781700828 3.2132649695
H -0.5733526436 2.3622665168 1.6144449052
H 0.4330626279 -0.2461973366 2.5213822135
H -0.7391825712 -0.5449543335 1.1827694178
$end

$rem
JOBTYPE                   OPT
METHOD                    B3LYP
DFT_D                     d3_op
BASIS                     STO-3G
GEOM_OPT_MAX_CYCLES       100
GEOM_OPT_TOL_GRADIENT     300
GEOM_OPT_TOL_DISPLACEMENT 1200
GEOM_OPT_TOL_ENERGY       100
SYMMETRY                  False
THRESH                    12
SCF_CONVERGENCE           8
MAX_SUB_FILE_NUM          128
MEM_STATIC                400
MEM_TOTAL                 4000
$end
--------------------------------------------------------------

   16   -1510.2848121206      5.53E-09 Convergence criterion met
 Total energy in the final basis set = -1510.28481212
   14   -1510.2853757787      6.07E-09 Convergence criterion met
 Total energy in the final basis set = -1510.28537578
   14   -1510.2810087302      5.72E-09 Convergence criterion met
 Total energy in the final basis set = -1510.28100873
   14   -1510.2852060869      1.72E-09 Convergence criterion met
 Total energy in the final basis set = -1510.28520609
   14   -1510.2855866406      5.93E-09 Convergence criterion met
 Total energy in the final basis set = -1510.28558664
   13   -1510.2861212278      5.38E-09 Convergence criterion met
 Total energy in the final basis set = -1510.28612123
   13   -1510.2867050601      4.24E-09 Convergence criterion met
 Total energy in the final basis set = -1510.28670506
   13   -1510.2868221078      4.44E-09 Convergence criterion met
   12   -1510.2951038936      9.29E-09 Convergence criterion met
 Total energy in the final basis set = -1510.29510389
   11   -1510.2951289554      9.47E-09 Convergence criterion met
 Total energy in the final basis set = -1510.29512896
   11   -1510.2951540008      6.35E-09 Convergence criterion met
 Total energy in the final basis set = -1510.29515400
   10   -1510.2951587769      4.58E-09 Convergence criterion met
 Total energy in the final basis set = -1510.29515878
   11   -1510.2951640943      3.24E-09 Convergence criterion met
 Total energy in the final basis set = -1510.29516409
    9   -1510.2951639732      6.43E-09 Convergence criterion met
 Total energy in the final basis set = -1510.29516397

             Standard Nuclear Orientation (Angstroms)
    I     Atom           X                Y                Z
 ----------------------------------------------------------------
    1      O      -1.7598052875    -1.7768543729     1.8365519474
    2      C      -2.5314665479    -1.3134637153     0.9608316212
    3      C      -3.0749714393     0.1586343662     0.8878632620
    4      C      -2.3628163239     1.0626862980    -0.2013408268
    5      C      -1.3001871406     0.2826028888    -1.0457785373
    6      O      -1.0202369909     1.0384823827    -2.2260619577
    7      C       0.0105372560     0.3669596420    -3.0500500754
    8      C       1.2741155215     1.3028887077    -3.1895839252
    9      O       2.4691658058     0.8048239431    -2.4711452197
   10      C       2.3250172686     0.9472318868    -1.0530598602
   11      C       3.6600081129     0.4533835111    -0.4012561218
   12      C       3.6531919325     0.4510983448     1.1821693086
   13      C       2.3200065690     0.9726746392     1.8374946339
   14      O       2.1238832064     2.1172882184     2.3033025404
   15      O      -3.1400259857    -2.1021961597    -0.0601195607
   16      O       1.3884578826    -0.1047920997     1.9032135099
   17      O       1.3034146663     1.3996350238    -0.4916834258
   18      C       0.1238912477     0.3471324178     2.5263865566
   19      C       3.9267897215    -1.0848875004    -0.7098164445
   20      C       5.4447922647    -1.3929408966    -0.4021603623
   21      C       5.4373023531    -1.3999357629     1.1718150982
   22      C       3.9170066423    -1.0891139047     1.4717450325
   23      O       3.2011220164    -1.7800217199     0.3740013308
   24      H       4.4790434227     1.0797141267    -0.7999290672
   25      H       4.4740545749     1.0815486118     1.5669939365
   26      H       3.5650627489    -1.4143210759    -1.7033420717
   27      H       5.7273329029    -2.3762279173    -0.8107655671
   28      H       6.1172315349    -0.6286219752    -0.8233179355
   29      H       5.7146743311    -2.3878992304     1.5724483991
   30      H       6.1092224701    -0.6416482583     1.6044111369
   31      H       3.5455795022    -1.4403794965     2.4533785870
   32      O      -0.7804214600    -0.8234722406    -0.7744934095
   33      C      -2.5729514643    -3.4699168096    -0.0418469116
   34      C      -4.5834275597     0.2353028620     0.3933105712
   35      C      -5.1630834892     1.6518374218     0.7842040445
   36      C      -4.4410883792     2.5755745562    -0.2655039415
   37      C      -3.6050551490     1.5137188391    -1.0820043973
   38      O      -4.4664287435     0.3093031799    -1.0815696461
   39      H      -2.9550513286     0.5976585626     1.8934351598
   40      H      -1.8561569960     1.9305882549     0.2602838180
   41      H      -2.7626405760    -3.9797746472     0.9248176239
   42      H      -5.2080281223    -0.6293945962     0.6886243109
   43      H      -6.2563738035     1.6671633402     0.6492786838
   44      H      -4.9327236312     1.9266223165     1.8259597366
   45      H      -5.1645219208     3.0835087505    -0.9226830796
   46      H      -3.7974618313     3.3350794163     0.2060381317
   47      H      -3.3357355848     1.8058640604    -2.1153982823
   48      H      -1.4791182831    -3.4487697940    -0.2244157480
   49      H      -3.0782725883    -4.0188560159    -0.8576048498
   50      H      -0.6026464434    -0.4902960510     2.3896256326
   51      H      -0.2516391280     1.2649477772     2.0318111186
   52      H       0.2673085360     0.5667287988     3.6041406701
   53      H       1.5887850821     1.3565121814    -4.2508663381
   54      H       0.9951692240     2.3216758031    -2.8405156001
   55      H      -0.4311256573     0.1757835589    -4.0502284842
   56      H       0.2811987960    -0.6005508129    -2.5712777134
 ----------------------------------------------------------------

    9   -1510.2951635389      2.27E-09 Convergence criterion met
 Total energy in the final basis set = -1510.29516354
 Final energy is   -1510.29516353886
 **  OPTIMIZATION CONVERGED  **

                    Orbital Energies (a.u.)
 --------------------------------------------------------------

 Alpha MOs
 -- Occupied --
-18.939 -18.939 -18.931 -18.907 -18.887 -18.885 -18.885 -18.882
-18.870 -18.845 -10.107 -10.105 -10.098 -10.079 -10.077 -10.073
-10.059 -10.059 -10.056 -10.056 -10.052 -10.040 -10.036 -10.035
-10.025 -10.021 -10.020 -10.019 -10.016 -10.014  -1.023  -1.014
 -1.005  -0.986  -0.969  -0.964  -0.945  -0.941  -0.930  -0.910
 -0.763  -0.758  -0.728  -0.720  -0.713  -0.703  -0.694  -0.655
 -0.635  -0.620  -0.594  -0.578  -0.545  -0.540  -0.537  -0.531
 -0.515  -0.507  -0.487  -0.471  -0.464  -0.455  -0.449  -0.438
 -0.433  -0.430  -0.428  -0.410  -0.406  -0.403  -0.397  -0.394
 -0.385  -0.383  -0.372  -0.366  -0.361  -0.354  -0.349  -0.340
 -0.336  -0.332  -0.330  -0.326  -0.323  -0.319  -0.316  -0.313
 -0.310  -0.305  -0.301  -0.299  -0.294  -0.280  -0.276  -0.275
 -0.266  -0.260  -0.252  -0.246  -0.234  -0.230  -0.225  -0.191
 -0.174  -0.169  -0.163  -0.158  -0.151  -0.146  -0.143  -0.138
 -0.128

          Ground-State Mulliken Net Atomic Charges

     Atom                 Charge (a.u.)
  ----------------------------------------
      1 O                    -0.215118
      2 C                     0.222198
      3 C                    -0.081399
      4 C                    -0.076446
      5 C                     0.225379
      6 O                    -0.171675
      7 C                    -0.056186
      8 C                    -0.050347
      9 O                    -0.174258
     10 C                     0.215297
     11 C                    -0.078106
     12 C                    -0.081911
     13 C                     0.210312
     14 O                    -0.226173
     15 O                    -0.165924
     16 O                    -0.169136
     17 O                    -0.208238
     18 C                    -0.146437
     19 C                     0.025468
     20 C                    -0.143840
     21 C                    -0.144636
     22 C                     0.027227
     23 O                    -0.185269
     24 H                     0.085113
     25 H                     0.080811
     26 H                     0.084730
     27 H                     0.076993
     28 H                     0.072369
     29 H                     0.076916
     30 H                     0.072657
     31 H                     0.087754
     32 O                    -0.205631
     33 C                    -0.127283
     34 C                     0.026337
     35 C                    -0.144000
     36 C                    -0.144214
     37 C                     0.024239
     38 O                    -0.188375
     39 H                     0.085027
     40 H                     0.092265
     41 H                     0.087986
     42 H                     0.085793
     43 H                     0.077774
     44 H                     0.074119
     45 H                     0.077892
     46 H                     0.074816
     47 H                     0.089337
     48 H                     0.097587
     49 H                     0.089202
     50 H                     0.112859
     51 H                     0.074596
     52 H                     0.071956
     53 H                     0.090757
     54 H                     0.095666
     55 H                     0.086919
     56 H                     0.106252
  ----------------------------------------
  Sum of atomic charges =    -0.000000

                    Cartesian Multipole Moments
 -----------------------------------------------------------------
    Charge (ESU x 10^10)
                 0.0000
    Dipole Moment (Debye)
         X       0.2125      Y       0.5907      Z      -2.1041
       Tot       2.1958
    Quadrupole Moments (Debye-Ang)
        XX    -145.1127     XY      -3.8500     YY    -159.7446
        XZ      -7.5610     YZ      -2.9347     ZZ    -154.7938

 Total job time:  124.77s(wall), 5942.38s(cpu)
        *  Thank you very much for using Q-Chem.  Have a nice day.  *
