 Q-Chem 5.0, Q-Chem, Inc., Pleasanton, CA (2017)
 Q-Chem 5.0.1 for Intel X86 EM64T Linux

User input:
--------------------------------------------------------------
$molecule
0  1
O -3.94934 -3.66094 2.70899
C -3.26408 -4.56952 2.26188
C -3.36658 -6.02376 2.66595
C -3.75323 -7.03163 1.57116
C -3.8206 -6.49862 0.15714
O -3.30793 -7.42001 -0.71097
C -3.33096 -6.9833 -2.07406
C -2.74501 -8.0604 -2.98106
O -3.73944 -8.5068 -3.91632
C -4.743 -9.25134 -3.38938
C -5.77575 -9.65625 -4.41414
C -7.17693 -9.07003 -4.18761
C -7.25921 -7.91226 -3.21318
O -8.04471 -7.82531 -2.28045
O -2.33164 -4.27438 1.3164
O -6.51747 -6.81341 -3.51613
O -4.82013 -9.57195 -2.2096
C -6.68759 -5.57808 -2.92263
C -5.52817 -9.19899 -5.87469
C -6.27805 -10.1196 -6.83881
C -7.70983 -9.6987 -6.57954
C -7.4821 -8.54254 -5.60101
O -6.24676 -7.9974 -5.99937
H -5.7833 -10.76944 -4.40491
H -7.90795 -9.83692 -3.84768
H -4.45539 -9.16442 -6.16238
H -6.00011 -9.80712 -7.87119
H -6.07295 -11.20526 -6.72006
H -8.14441 -9.32477 -7.53318
H -8.36519 -10.48342 -6.14328
H -8.34903 -7.84518 -5.60923
O -4.51819 -5.54817 -0.17568
C -2.11154 -3.01249 0.80609
C -2.02136 -6.59919 3.14313
C -2.26795 -7.7702 4.08917
C -2.78426 -8.8088 3.11769
C -2.61088 -8.06141 1.78817
O -1.4928 -7.23649 2.00562
H -4.10065 -6.0549 3.50359
H -4.75557 -7.4708 1.77184
H -1.80741 -2.31833 1.61834
H -1.36781 -5.84171 3.62922
H -1.27221 -8.09829 4.46521
H -2.93303 -7.55595 4.95326
H -2.11129 -9.69395 3.16468
H -3.83833 -9.1248 3.27433
H -2.513 -8.81353 0.97708
H -3.03236 -2.63448 0.31247
H -1.29808 -3.06183 0.05359
H -5.94433 -4.86751 -3.3388
H -6.54314 -5.653 -1.8251
H -7.70771 -5.19265 -3.13415
H -1.94492 -7.58621 -3.58945
H -2.26548 -8.89822 -2.42645
H -2.6881 -6.07598 -2.15314
H -4.34181 -6.69779 -2.40522
$end

$opt
CONSTRAINT
tors           1           2           3           4    +118.138
tors           3           4           5           6    +140.431
tors           4           5           6           7    -179.695
tors           5           6           7           8    -180.000
tors           6           7           8           9    +118.339
tors           7           8           9          10     -71.156
tors           8           9          10          11    +178.355
tors           9          10          11          12    -115.436
tors          11          12          13          14    -130.187
ENDCONSTRAINT
$end

$rem
JOBTYPE                   OPT
METHOD                    B3LYP
DFT_D                     d3_op
BASIS                     STO-3G
GEOM_OPT_MAX_CYCLES       100
GEOM_OPT_TOL_GRADIENT     300
GEOM_OPT_TOL_DISPLACEMENT 1200
GEOM_OPT_TOL_ENERGY       100
SYMMETRY                  False
THRESH                    12
SCF_CONVERGENCE           8
MAX_SUB_FILE_NUM          128
MEM_STATIC                400
MEM_TOTAL                 4000
$end
--------------------------------------------------------------

   15   -1510.1557380098      8.10E-09 Convergence criterion met
 Total energy in the final basis set = -1510.15573801
   14   -1510.2244822834      6.48E-09 Convergence criterion met
 Total energy in the final basis set = -1510.22448228
   14   -1510.2609064912      7.54E-09 Convergence criterion met
 Total energy in the final basis set = -1510.26090649
   14   -1510.2759310229      4.80E-09 Convergence criterion met
 Total energy in the final basis set = -1510.27593102
   14   -1510.2777899251      4.24E-09 Convergence criterion met
 Total energy in the final basis set = -1510.27778993
    2   -1510.2777899250      1.90E-09 Convergence criterion met
 Total energy in the final basis set = -1510.27778992
   14   -1510.2803712237      4.69E-09 Convergence criterion met
 Total energy in the final basis set = -1510.28037122
   12   -1510.2817159793      7.50E-09 Convergence criterion met
   12   -1510.2857335583      6.02E-09 Convergence criterion met
 Total energy in the final basis set = -1510.28573356
   11   -1510.2858132509      9.81E-09 Convergence criterion met
 Total energy in the final basis set = -1510.28581325
   11   -1510.2858684671      5.60E-09 Convergence criterion met
 Total energy in the final basis set = -1510.28586847
   12   -1510.2858895378      2.43E-09 Convergence criterion met
 Total energy in the final basis set = -1510.28588954
   10   -1510.2858963066      9.70E-09 Convergence criterion met
 Total energy in the final basis set = -1510.28589631
    9   -1510.2858972096      7.77E-09 Convergence criterion met
 Total energy in the final basis set = -1510.28589721

             Standard Nuclear Orientation (Angstroms)
    I     Atom           X                Y                Z
 ----------------------------------------------------------------
    1      O       4.5471887356    -2.7521661288    -0.4171714570
    2      C       4.3231331648    -1.5954246797    -0.0012221001
    3      C       4.2890057070    -0.2737140387    -0.8430717636
    4      C       2.8754373578     0.4478678461    -0.8240247509
    5      C       1.8016054903    -0.3434748827     0.0048208789
    6      O       0.9973812559     0.5617965119     0.7473934017
    7      C      -0.0189374234    -0.1748876044     1.5424966487
    8      C      -0.8572089394     0.9008239207     2.3265727591
    9      O      -2.2755247357     0.8278649155     1.9015569682
   10      C      -2.4046423089     1.3329500982     0.5683467104
   11      C      -3.8952612676     1.2204607880     0.0957501875
   12      C      -4.0770907720     0.2190576720    -1.1270894863
   13      C      -2.7980270255    -0.4942728580    -1.6885103878
   14      O      -2.4816129175    -0.5356661211    -2.8992836362
   15      O       4.0691385513    -1.2644965324     1.3710414453
   16      O      -2.0926388397    -1.2047273990    -0.6555769765
   17      O      -1.4558190513     1.8052240343    -0.0952556113
   18      C      -1.0946473793    -2.1238841928    -1.2711182790
   19      C      -4.8603530368     0.5643718533     1.1680432270
   20      C      -6.3558017199     0.8380228089     0.7369231459
   21      C      -6.5230479999    -0.1794249029    -0.4510696548
   22      C      -5.0878498414    -0.8367555772    -0.4895722984
   23      O      -4.6880110041    -0.8885315575     0.9331994211
   24      H      -4.2304514336     2.2334589439    -0.1938619459
   25      H      -4.5388663720     0.7376495842    -1.9858274352
   26      H      -4.6137605736     0.8188630482     2.2159241098
   27      H      -7.0424322637     0.6071639321     1.5667042381
   28      H      -6.5147224992     1.8836430705     0.4280964143
   29      H      -7.2878245430    -0.9401054987    -0.2271144259
   30      H      -6.7811108523     0.3119295920    -1.4027611127
   31      H      -5.0437788514    -1.8462645659    -0.9424547757
   32      O       1.6113873470    -1.5845963807    -0.0256486409
   33      C       3.9735793314    -2.5023433586     2.1758056299
   34      C       5.2035716600     0.8666928647    -0.2181966266
   35      C       5.4141589146     1.9870230719    -1.3128187799
   36      C       4.0106420960     2.6994105210    -1.2917315602
   37      C       3.2551715143     1.8516815187    -0.1945537806
   38      O       4.3200707903     1.5136117959     0.7779879818
   39      H       4.5960715297    -0.5254851390    -1.8730457885
   40      H       2.4788311032     0.5614905284    -1.8506984170
   41      H       4.8860842314    -3.1255151720     2.0827799076
   42      H       6.1292769657     0.4990164555     0.2651615991
   43      H       6.2212586542     2.6738942453    -1.0121037229
   44      H       5.6613461019     1.5613877066    -2.2985605925
   45      H       4.0959735405     3.7505402234    -0.9736105572
   46      H       3.4997430723     2.6662248135    -2.2673287765
   47      H       2.4099705875     2.3580202876     0.3095709086
   48      H       3.0973864829    -3.1105001535     1.8688558304
   49      H       3.8499810647    -2.1772446037     3.2251583105
   50      H      -0.1170571848    -2.0055019409    -0.7521749459
   51      H      -0.9959135722    -1.8817178481    -2.3474115643
   52      H      -1.4551443885    -3.1648070043    -1.1539971060
   53      H      -0.8647244870     0.6932759584     3.4142636061
   54      H      -0.4266029461     1.9082362060     2.1384870775
   55      H       0.4795906878    -0.8894920769     2.2313740206
   56      H      -0.7167082095    -0.7366777369     0.8807593197
 ----------------------------------------------------------------

    9   -1510.2858972992      5.13E-09 Convergence criterion met
 Total energy in the final basis set = -1510.28589730
 Final energy is   -1510.28589729916
 **  OPTIMIZATION CONVERGED  **

                    Orbital Energies (a.u.)
 --------------------------------------------------------------

 Alpha MOs
 -- Occupied --
-18.943 -18.937 -18.930 -18.925 -18.889 -18.885 -18.876 -18.875
-18.874 -18.868 -10.106 -10.101 -10.098 -10.092 -10.076 -10.069
-10.062 -10.059 -10.058 -10.057 -10.055 -10.041 -10.039 -10.039
-10.038 -10.034 -10.022 -10.021 -10.018 -10.017  -1.021  -1.013
 -1.006  -1.002  -0.971  -0.967  -0.941  -0.938  -0.932  -0.928
 -0.764  -0.761  -0.728  -0.721  -0.715  -0.706  -0.694  -0.655
 -0.650  -0.617  -0.598  -0.582  -0.546  -0.544  -0.538  -0.535
 -0.517  -0.512  -0.489  -0.474  -0.469  -0.463  -0.443  -0.439
 -0.434  -0.430  -0.427  -0.414  -0.411  -0.406  -0.405  -0.401
 -0.390  -0.380  -0.369  -0.366  -0.364  -0.358  -0.348  -0.346
 -0.342  -0.341  -0.337  -0.332  -0.328  -0.322  -0.321  -0.309
 -0.308  -0.305  -0.303  -0.301  -0.297  -0.289  -0.285  -0.276
 -0.272  -0.258  -0.255  -0.246  -0.242  -0.235  -0.232  -0.183
 -0.177  -0.172  -0.168  -0.159  -0.157  -0.151  -0.145  -0.144
 -0.141

          Ground-State Mulliken Net Atomic Charges

     Atom                 Charge (a.u.)
  ----------------------------------------
      1 O                    -0.212039
      2 C                     0.210963
      3 C                    -0.080192
      4 C                    -0.076884
      5 C                     0.220435
      6 O                    -0.162498
      7 C                    -0.053896
      8 C                    -0.047606
      9 O                    -0.168228
     10 C                     0.209891
     11 C                    -0.078707
     12 C                    -0.078739
     13 C                     0.208447
     14 O                    -0.211860
     15 O                    -0.170966
     16 O                    -0.175139
     17 O                    -0.214511
     18 C                    -0.151794
     19 C                     0.024612
     20 C                    -0.144593
     21 C                    -0.143702
     22 C                     0.026151
     23 O                    -0.186034
     24 H                     0.085341
     25 H                     0.086234
     26 H                     0.091173
     27 H                     0.078089
     28 H                     0.073187
     29 H                     0.078294
     30 H                     0.074379
     31 H                     0.083013
     32 O                    -0.223200
     33 C                    -0.129113
     34 C                     0.026086
     35 C                    -0.144059
     36 C                    -0.144004
     37 C                     0.023731
     38 O                    -0.187607
     39 H                     0.084600
     40 H                     0.087901
     41 H                     0.088742
     42 H                     0.082881
     43 H                     0.077359
     44 H                     0.073668
     45 H                     0.077688
     46 H                     0.074131
     47 H                     0.093639
     48 H                     0.090348
     49 H                     0.087962
     50 H                     0.102250
     51 H                     0.097314
     52 H                     0.080236
     53 H                     0.092057
     54 H                     0.098373
     55 H                     0.087688
     56 H                     0.108512
  ----------------------------------------
  Sum of atomic charges =    -0.000000

                    Cartesian Multipole Moments
 -----------------------------------------------------------------
    Charge (ESU x 10^10)
                 0.0000
    Dipole Moment (Debye)
         X      -1.4735      Y       1.7494      Z       0.8386
       Tot       2.4362
    Quadrupole Moments (Debye-Ang)
        XX    -145.4930     XY       0.3748     YY    -162.4107
        XZ      -1.3221     YZ      -3.3756     ZZ    -159.1166

 Total job time:  126.13s(wall), 6009.30s(cpu)
        *  Thank you very much for using Q-Chem.  Have a nice day.  *
