 Q-Chem 5.0, Q-Chem, Inc., Pleasanton, CA (2017)
 Q-Chem 5.0.1 for Intel X86 EM64T Linux

User input:
--------------------------------------------------------------
$molecule
0  1
O 4.5471887356 -2.7521661288 -0.417171457
C 4.3231331648 -1.5954246797 -0.0012221001
C 4.289005707 -0.2737140387 -0.8430717636
C 2.8754373578 0.4478678461 -0.8240247509
C 1.8016054903 -0.3434748827 0.0048208789
O 0.9973812559 0.5617965119 0.7473934017
C -0.0189374234 -0.1748876044 1.5424966487
C -0.8572089394 0.9008239207 2.3265727591
O -2.2755247357 0.8278649155 1.9015569682
C -2.4046423089 1.3329500982 0.5683467104
C -3.8952612676 1.220460788 0.0957501875
C -4.077090772 0.219057672 -1.1270894863
C -2.7980270255 -0.494272858 -1.6885103878
O -2.4816129175 -0.5356661211 -2.8992836362
O 4.0691385513 -1.2644965324 1.3710414453
O -2.0926388397 -1.204727399 -0.6555769765
O -1.4558190513 1.8052240343 -0.0952556113
C -1.0946473793 -2.1238841928 -1.271118279
C -4.8603530368 0.5643718533 1.168043227
C -6.3558017199 0.8380228089 0.7369231459
C -6.5230479999 -0.1794249029 -0.4510696548
C -5.0878498414 -0.8367555772 -0.4895722984
O -4.6880110041 -0.8885315575 0.9331994211
H -4.2304514336 2.2334589439 -0.1938619459
H -4.538866372 0.7376495842 -1.9858274352
H -4.6137605736 0.8188630482 2.2159241098
H -7.0424322637 0.6071639321 1.5667042381
H -6.5147224992 1.8836430705 0.4280964143
H -7.287824543 -0.9401054987 -0.2271144259
H -6.7811108523 0.311929592 -1.4027611127
H -5.0437788514 -1.8462645659 -0.9424547757
O 1.611387347 -1.5845963807 -0.0256486409
C 3.9735793314 -2.5023433586 2.1758056299
C 5.20357166 0.8666928647 -0.2181966266
C 5.4141589146 1.9870230719 -1.3128187799
C 4.010642096 2.699410521 -1.2917315602
C 3.2551715143 1.8516815187 -0.1945537806
O 4.3200707903 1.5136117959 0.7779879818
H 4.5960715297 -0.525485139 -1.8730457885
H 2.4788311032 0.5614905284 -1.850698417
H 4.8860842314 -3.125515172 2.0827799076
H 6.1292769657 0.4990164555 0.2651615991
H 6.2212586542 2.6738942453 -1.0121037229
H 5.6613461019 1.5613877066 -2.2985605925
H 4.0959735405 3.7505402234 -0.9736105572
H 3.4997430723 2.6662248135 -2.2673287765
H 2.4099705875 2.3580202876 0.3095709086
H 3.0973864829 -3.1105001535 1.8688558304
H 3.8499810647 -2.1772446037 3.2251583105
H -0.1170571848 -2.0055019409 -0.7521749459
H -0.9959135722 -1.8817178481 -2.3474115643
H -1.4551443885 -3.1648070043 -1.153997106
H -0.864724487 0.6932759584 3.4142636061
H -0.4266029461 1.908236206 2.1384870775
H 0.4795906878 -0.8894920769 2.2313740206
H -0.7167082095 -0.7366777369 0.8807593197
$end

$rem
JOBTYPE                   OPT
METHOD                    B3LYP
DFT_D                     d3_op
BASIS                     STO-3G
GEOM_OPT_MAX_CYCLES       100
GEOM_OPT_TOL_GRADIENT     300
GEOM_OPT_TOL_DISPLACEMENT 1200
GEOM_OPT_TOL_ENERGY       100
SYMMETRY                  False
THRESH                    12
SCF_CONVERGENCE           8
MAX_SUB_FILE_NUM          128
MEM_STATIC                400
MEM_TOTAL                 4000
$end
--------------------------------------------------------------

   16   -1510.2859022041      5.61E-09 Convergence criterion met
 Total energy in the final basis set = -1510.28590220
   15   -1510.2159519951      4.92E-09 Convergence criterion met
 Total energy in the final basis set = -1510.21595200
   15   -1510.2857919487      4.96E-09 Convergence criterion met
 Total energy in the final basis set = -1510.28579195
   15   -1510.2843991423      2.53E-09 Convergence criterion met
 Total energy in the final basis set = -1510.28439914
   15   -1510.2846390550      1.45E-09 Convergence criterion met
 Total energy in the final basis set = -1510.28463906
   14   -1510.2848246467      6.22E-09 Convergence criterion met
 Total energy in the final basis set = -1510.28482465
   13   -1510.2854430101      8.85E-09 Convergence criterion met
 Total energy in the final basis set = -1510.28544301
   14   -1510.2859536858      6.17E-09 Convergence criterion met
   11   -1510.2947103579      3.77E-09 Convergence criterion met
 Total energy in the final basis set = -1510.29471036
   11   -1510.2947151283      5.25E-09 Convergence criterion met
 Total energy in the final basis set = -1510.29471513
   10   -1510.2947245143      7.56E-09 Convergence criterion met
 Total energy in the final basis set = -1510.29472451
   11   -1510.2947352872      3.01E-09 Convergence criterion met
 Total energy in the final basis set = -1510.29473529
   11   -1510.2947386705      2.96E-09 Convergence criterion met
 Total energy in the final basis set = -1510.29473867
   11   -1510.2947422354      2.58E-09 Convergence criterion met
 Total energy in the final basis set = -1510.29474224

             Standard Nuclear Orientation (Angstroms)
    I     Atom           X                Y                Z
 ----------------------------------------------------------------
    1      O       3.6900027240    -2.6771906711    -1.0874932298
    2      C       3.4944753797    -1.5974372969    -0.4893541957
    3      C       3.0336338584    -0.2357472020    -1.1018382075
    4      C       1.8433679692     0.4348365903    -0.2999047617
    5      C       1.2858365427    -0.4694282648     0.8438143811
    6      O       1.2343242806     0.2320118266     2.0834718788
    7      C       0.3795671605    -0.4965215218     3.0486830990
    8      C      -0.9271878391     0.3326948745     3.3328833794
    9      O      -2.0075582079     0.1444233676     2.3321487696
   10      C      -1.8418306815     1.0155541118     1.2050747828
   11      C      -3.1623180108     1.0450618166     0.3476726188
   12      C      -2.9989082872     0.6904527459    -1.1982200116
   13      C      -1.5777443272     0.1439192909    -1.5870693086
   14      O      -0.5662596525     0.8471121292    -1.8388853121
   15      O       3.6694998316    -1.4171624324     0.9239571302
   16      O      -1.6220150865    -1.2700380410    -1.6485552835
   17      O      -0.8215398113     1.7082633738     1.0003819801
   18      C      -0.2849613316    -1.8542515193    -1.9350005170
   19      C      -4.2816493040     0.0039738488     0.7801916293
   20      C      -5.6723167772     0.5536332286     0.2720079196
   21      C      -5.5439947988     0.3014832473    -1.2760106034
   22      C      -4.1323030016    -0.4066006988    -1.3590944471
   23      O      -4.0416007073    -1.1674735498    -0.0913420284
   24      H      -3.5471046949     2.0786102618     0.4388408207
   25      H      -3.1911284514     1.5863232153    -1.8158367179
   26      H      -4.2380566373    -0.2871958428     1.8465649874
   27      H      -6.4972336275    -0.0319102949     0.7082986659
   28      H      -5.8213554568     1.6160025679     0.5227528130
   29      H      -6.3347335008    -0.3709362493    -1.6446213415
   30      H      -5.5716298002     1.2335625353    -1.8629449659
   31      H      -3.9917748473    -1.0798108799    -2.2257714314
   32      O       0.8315857028    -1.6359491430     0.6985210404
   33      C       3.9771183091    -2.7135197530     1.5671399111
   34      C       4.1479058712     0.8925664221    -0.9578741952
   35      C       3.7414593654     2.0996539222    -1.8954925805
   36      C       2.5714453812     2.7488205633    -1.0662976065
   37      C       2.5117952246     1.7836748306     0.1807492085
   38      O       3.9313875275     1.4180068288     0.4068910902
   39      H       2.7696776237    -0.4129173591    -2.1590733484
   40      H       0.9732073624     0.6333756095    -0.9744570844
   41      H       4.8671505948    -3.1959220791     1.1146991951
   42      H       5.1876584180     0.5305546534    -1.0769918945
   43      H       4.5875682827     2.7944751398    -2.0177866075
   44      H       3.4174762518     1.7569626547    -2.8912491346
   45      H       2.8204492814     3.7750183472    -0.7525326226
   46      H       1.6161899046     2.7641171940    -1.6147896693
   47      H       2.0622888466     2.2098192697     1.0973838482
   48      H       3.1178611576    -3.4114579715     1.4893347477
   49      H       4.1755416978    -2.4880121193     2.6309373683
   50      H       0.3025898946    -1.8971987598    -0.9803068289
   51      H       0.2550168928    -1.2589357762    -2.6968038481
   52      H      -0.4764152064    -2.8724453005    -2.3185348925
   53      H      -1.3651680096    -0.0132056979     4.2918557431
   54      H      -0.6566552660     1.4074618496     3.4168618261
   55      H       0.9498149784    -0.6084772468     3.9943164044
   56      H       0.1367359444    -1.4972682679     2.6272786699
 ----------------------------------------------------------------

   11   -1510.2947415186      2.62E-09 Convergence criterion met
 Total energy in the final basis set = -1510.29474152
 Final energy is   -1510.29474151863
 **  OPTIMIZATION CONVERGED  **

                    Orbital Energies (a.u.)
 --------------------------------------------------------------

 Alpha MOs
 -- Occupied --
-18.940 -18.938 -18.938 -18.929 -18.886 -18.881 -18.877 -18.875
-18.873 -18.869 -10.105 -10.103 -10.102 -10.092 -10.079 -10.071
-10.059 -10.059 -10.058 -10.051 -10.043 -10.041 -10.039 -10.037
-10.027 -10.020 -10.019 -10.014 -10.009 -10.005  -1.022  -1.012
 -1.011  -1.003  -0.968  -0.958  -0.943  -0.938  -0.935  -0.930
 -0.764  -0.753  -0.726  -0.719  -0.710  -0.702  -0.689  -0.654
 -0.651  -0.617  -0.595  -0.577  -0.546  -0.538  -0.536  -0.526
 -0.515  -0.506  -0.488  -0.476  -0.469  -0.459  -0.442  -0.438
 -0.433  -0.427  -0.421  -0.412  -0.409  -0.407  -0.403  -0.401
 -0.395  -0.381  -0.373  -0.365  -0.360  -0.356  -0.350  -0.348
 -0.343  -0.337  -0.334  -0.330  -0.326  -0.319  -0.312  -0.310
 -0.306  -0.300  -0.296  -0.292  -0.291  -0.286  -0.286  -0.274
 -0.267  -0.256  -0.247  -0.245  -0.242  -0.232  -0.222  -0.194
 -0.182  -0.171  -0.169  -0.160  -0.154  -0.149  -0.143  -0.141
 -0.132

          Ground-State Mulliken Net Atomic Charges

     Atom                 Charge (a.u.)
  ----------------------------------------
      1 O                    -0.213330
      2 C                     0.208244
      3 C                    -0.081227
      4 C                    -0.093953
      5 C                     0.223649
      6 O                    -0.162564
      7 C                    -0.056456
      8 C                    -0.050144
      9 O                    -0.171000
     10 C                     0.204705
     11 C                    -0.078334
     12 C                    -0.077415
     13 C                     0.212464
     14 O                    -0.221166
     15 O                    -0.167441
     16 O                    -0.162125
     17 O                    -0.209014
     18 C                    -0.150345
     19 C                     0.022769
     20 C                    -0.143803
     21 C                    -0.145149
     22 C                     0.026082
     23 O                    -0.186394
     24 H                     0.084842
     25 H                     0.084941
     26 H                     0.091785
     27 H                     0.077791
     28 H                     0.072013
     29 H                     0.077901
     30 H                     0.072482
     31 H                     0.088940
     32 O                    -0.230124
     33 C                    -0.128618
     34 C                     0.025733
     35 C                    -0.143760
     36 C                    -0.143985
     37 C                     0.025166
     38 O                    -0.190353
     39 H                     0.082725
     40 H                     0.116063
     41 H                     0.089946
     42 H                     0.079480
     43 H                     0.074908
     44 H                     0.072750
     45 H                     0.074045
     46 H                     0.081639
     47 H                     0.093904
     48 H                     0.089273
     49 H                     0.089572
     50 H                     0.115991
     51 H                     0.081211
     52 H                     0.085310
     53 H                     0.090303
     54 H                     0.095002
     55 H                     0.088172
     56 H                     0.106898
  ----------------------------------------
  Sum of atomic charges =     0.000000

                    Cartesian Multipole Moments
 -----------------------------------------------------------------
    Charge (ESU x 10^10)
                -0.0000
    Dipole Moment (Debye)
         X      -2.3381      Y       1.2472      Z       1.0129
       Tot       2.8369
    Quadrupole Moments (Debye-Ang)
        XX    -154.3875     XY      -7.7413     YY    -164.6690
        XZ       0.5119     YZ      -4.5658     ZZ    -147.3637

 Total job time:  189.85s(wall), 9057.39s(cpu)
        *  Thank you very much for using Q-Chem.  Have a nice day.  *
