 Q-Chem 5.0, Q-Chem, Inc., Pleasanton, CA (2017)
 Q-Chem 5.0.1 for Intel X86 EM64T Linux

User input:
--------------------------------------------------------------
$molecule
0  1
O 4.3121509134 -2.8739785118 -0.2999591378
C 4.233695251 -1.6965164944 0.1113771219
C 4.4113044484 -0.3871743165 -0.7319817148
C 3.0763990921 0.4644255538 -0.8640765326
C 1.8706307142 -0.1920608132 -0.1012579883
O 1.0904274104 0.8062261154 0.5405343039
C -0.0170325329 0.1797885772 1.3083318125
C -0.8332159305 1.3409840186 1.9879106975
O -2.2737479027 1.1652873818 1.6851561684
C -2.5120607402 1.460779619 0.3043744224
C -4.0249935071 1.2379122087 -0.0373225554
C -4.2386051656 0.0672352282 -1.0933549965
C -2.9658781531 -0.6478417155 -1.667326512
O -2.7506950208 -0.8391858573 -2.8857356676
O 3.9650810255 -1.3310863609 1.4718246909
O -2.1255180845 -1.1645946476 -0.6193147641
O -1.6302297459 1.8594746924 -0.4878321417
C -1.1226128364 -2.1030176191 -1.1971953454
C -4.8805377897 0.7007576193 1.1831597089
C -6.4132620677 0.8363983189 0.824707151
C -6.6012200102 -0.3598622322 -0.1803498673
C -5.1332980979 -0.9384746162 -0.2371036979
O -4.6377293822 -0.7605790619 1.1450189622
H -4.4227952336 2.1881167217 -0.4385882917
H -4.7983685778 0.4371560357 -1.9702894262
H -4.5822791957 1.1166955941 2.1638605596
H -7.0323197116 0.7082481753 1.7268477305
H -6.648446956 1.8128734059 0.3719609344
H -7.2953529258 -1.1170313752 0.2181299597
H -6.9609053121 -0.0359635463 -1.170056369
H -5.0545997096 -1.9995275257 -0.5439974141
O 1.5880861581 -1.4159957711 -0.0884522473
C 3.6511683261 -2.5427635276 2.2611268988
C 5.3653305274 0.6772894871 -0.0357918985
C 5.7992211303 1.7357141133 -1.1257963246
C 4.4764298496 2.5745578157 -1.2779289566
C 3.5328476738 1.8481996663 -0.2409812735
O 4.4539291654 1.4421740278 0.8455452466
H 4.7904121442 -0.683718623 -1.7255886446
H 2.7819005045 0.5745093814 -1.9246876731
H 4.4804272562 -3.2788494582 2.2361559101
H 6.1938340026 0.2369199972 0.5518368972
H 6.6287907763 2.3553209389 -0.7497332215
H 6.1127921854 1.2580490578 -2.0677220149
H 4.6291541315 3.6263460709 -0.988490073
H 4.0680286307 2.5462309539 -2.3009221927
H 2.6985754303 2.455102222 0.1592698909
H 2.7304141518 -3.0347370574 1.885045014
H 3.491112582 -2.1990971705 3.2995521178
H -0.1286306018 -1.8968742252 -0.7389833267
H -1.086378169 -1.9662377598 -2.29558314
H -1.4319386268 -3.1409845752 -0.9636512969
H -0.7539880838 1.3066243165 3.0916574427
H -0.4567293746 2.3180903531 1.6139490961
H 0.3949364062 -0.524447003 2.0620390142
H -0.7108531358 -0.380207242 0.6398025231
$end

$rem
JOBTYPE                   OPT
METHOD                    B3LYP
DFT_D                     d3_op
BASIS                     STO-3G
GEOM_OPT_MAX_CYCLES       100
GEOM_OPT_TOL_GRADIENT     300
GEOM_OPT_TOL_DISPLACEMENT 1200
GEOM_OPT_TOL_ENERGY       100
SYMMETRY                  False
THRESH                    12
SCF_CONVERGENCE           8
MAX_SUB_FILE_NUM          128
MEM_STATIC                400
MEM_TOTAL                 4000
$end
--------------------------------------------------------------

   16   -1510.2859152980      5.49E-09 Convergence criterion met
 Total energy in the final basis set = -1510.28591530
   15   -1510.1775566151      6.19E-09 Convergence criterion met
 Total energy in the final basis set = -1510.17755662
   15   -1510.2856453075      6.30E-09 Convergence criterion met
 Total energy in the final basis set = -1510.28564531
   15   -1510.2833392891      2.53E-09 Convergence criterion met
 Total energy in the final basis set = -1510.28333929
   15   -1510.2849131053      3.05E-09 Convergence criterion met
 Total energy in the final basis set = -1510.28491311
   14   -1510.2853732994      5.32E-09 Convergence criterion met
 Total energy in the final basis set = -1510.28537330
   14   -1510.2847248129      6.05E-09 Convergence criterion met
 Total energy in the final basis set = -1510.28472481
   13   -1510.2861602915      8.40E-09 Convergence criterion met
   10   -1510.2887554175      7.36E-09 Convergence criterion met
 Total energy in the final basis set = -1510.28875542
   11   -1510.2887918361      9.87E-09 Convergence criterion met
 Total energy in the final basis set = -1510.28879184
   11   -1510.2888323645      7.81E-09 Convergence criterion met
 Total energy in the final basis set = -1510.28883236
   11   -1510.2888521290      5.98E-09 Convergence criterion met
 Total energy in the final basis set = -1510.28885213
   10   -1510.2888648128      9.59E-09 Convergence criterion met
 Total energy in the final basis set = -1510.28886481
    9   -1510.2888668208      6.80E-09 Convergence criterion met
 Total energy in the final basis set = -1510.28886682

             Standard Nuclear Orientation (Angstroms)
    I     Atom           X                Y                Z
 ----------------------------------------------------------------
    1      O       4.4000815722    -2.8516455117     0.8819010576
    2      C       4.0161375013    -1.6712641237     0.7387466937
    3      C       4.5175778542    -0.6320776792    -0.3169086551
    4      C       3.3536904433     0.1694907814    -1.0457735165
    5      C       1.9182040256    -0.2500224122    -0.5520752249
    6      O       1.3248959253     0.8206857634     0.1762155707
    7      C       0.0006286683     0.4241989780     0.7165345930
    8      C      -0.6530779369     1.7248629817     1.3052200612
    9      O      -2.1096501000     1.4964189677     1.4595097864
   10      C      -2.7590896783     1.6601845747     0.1930185581
   11      C      -4.2207850550     1.0914293986     0.2581949413
   12      C      -4.4993787579     0.0666085537    -0.9258035814
   13      C      -3.3411570464    -0.1087563713    -1.9703627318
   14      O      -3.4177914623     0.1422403095    -3.1928959058
   15      O       3.0240905161    -1.0414915032     1.5608627318
   16      O      -2.1811186449    -0.6843605850    -1.3483640810
   17      O      -2.2154249431     2.1669786246    -0.8134319960
   18      C      -1.1624610273    -0.9898420452    -2.3855981647
   19      C      -4.4745233288     0.1674874939     1.5188582507
   20      C      -6.0252032874    -0.1109703555     1.6411780513
   21      C      -6.2394666001    -1.1700891660     0.4977929664
   22      C      -4.7806908144    -1.2656604521    -0.0999038822
   23      O      -3.9127042894    -1.1353598083     1.0913582474
   24      H      -4.9303497467     1.9383768034     0.2151105235
   25      H      -5.3911651871     0.3724174498    -1.5006069619
   26      H      -3.9776126187     0.5188414539     2.4425133051
   27      H      -6.2631763645    -0.5313664763     2.6311009444
   28      H      -6.6230369697     0.8028553172     1.4940358982
   29      H      -6.5505888393    -2.1453759745     0.9050023032
   30      H      -6.9784636292    -0.8478208245    -0.2531262362
   31      H      -4.5525386825    -2.2015769760    -0.6457255671
   32      O       1.3442623212    -1.3352013722    -0.8115189654
   33      C       2.4413750755    -2.0212478742     2.5054279521
   34      C       5.3208601368     0.5682960533     0.3564666149
   35      C       6.1448971631     1.3021042801    -0.7740431893
   36      C       5.0014353150     2.0827607701    -1.5217193481
   37      C       3.7362895379     1.6609782533    -0.6739915452
   38      O       4.2645281260     1.5423256851     0.7054077897
   39      H       5.1467123815    -1.1772797316    -1.0419858384
   40      H       3.3923432005    -0.0062319957    -2.1364502729
   41      H       3.2277751654    -2.5704721253     3.0609652611
   42      H       5.9015596356     0.2851589337     1.2558303502
   43      H       6.8789179347     1.9907155167    -0.3260955602
   44      H       6.6781265640     0.5941081490    -1.4282628631
   45      H       5.1536452928     3.1724050035    -1.4682351692
   46      H       4.9077510193     1.7910691654    -2.5799355398
   47      H       2.8864562751     2.3685368914    -0.7033084819
   48      H       1.8031292171    -2.7560131013     1.9723194384
   49      H       1.8219775187    -1.4372463661     3.2106781086
   50      H      -0.2426409103    -1.2844547861    -1.8325482638
   51      H      -0.9580963393    -0.1017181099    -3.0162663224
   52      H      -1.5012832445    -1.8166972642    -3.0413869800
   53      H      -0.2607837445     1.9599254382     2.3137889281
   54      H      -0.4583715198     2.5745784650     0.6159994500
   55      H       0.1210359401    -0.3499146431     1.5033960911
   56      H      -0.6720313826     0.0155776549    -0.0727593706
 ----------------------------------------------------------------

    9   -1510.2888654332      3.32E-09 Convergence criterion met
 Total energy in the final basis set = -1510.28886543
 Final energy is   -1510.28886543322
 **  OPTIMIZATION CONVERGED  **

                    Orbital Energies (a.u.)
 --------------------------------------------------------------

 Alpha MOs
 -- Occupied --
-18.939 -18.937 -18.937 -18.926 -18.889 -18.887 -18.879 -18.877
-18.871 -18.869 -10.105 -10.103 -10.101 -10.093 -10.073 -10.065
-10.064 -10.063 -10.060 -10.059 -10.058 -10.041 -10.040 -10.040
-10.039 -10.035 -10.022 -10.020 -10.020 -10.019  -1.019  -1.016
 -1.008  -1.002  -0.971  -0.969  -0.941  -0.939  -0.936  -0.928
 -0.765  -0.762  -0.728  -0.723  -0.714  -0.706  -0.693  -0.662
 -0.648  -0.615  -0.598  -0.580  -0.548  -0.545  -0.538  -0.537
 -0.518  -0.511  -0.489  -0.477  -0.469  -0.465  -0.449  -0.439
 -0.434  -0.432  -0.426  -0.414  -0.414  -0.409  -0.402  -0.398
 -0.392  -0.379  -0.371  -0.369  -0.364  -0.358  -0.350  -0.347
 -0.343  -0.340  -0.334  -0.332  -0.330  -0.326  -0.319  -0.309
 -0.308  -0.306  -0.304  -0.301  -0.297  -0.291  -0.289  -0.277
 -0.271  -0.257  -0.254  -0.251  -0.241  -0.235  -0.233  -0.180
 -0.179  -0.176  -0.169  -0.159  -0.158  -0.150  -0.146  -0.144
 -0.143

          Ground-State Mulliken Net Atomic Charges

     Atom                 Charge (a.u.)
  ----------------------------------------
      1 O                    -0.208791
      2 C                     0.210211
      3 C                    -0.079685
      4 C                    -0.077898
      5 C                     0.221208
      6 O                    -0.166876
      7 C                    -0.054464
      8 C                    -0.048438
      9 O                    -0.170983
     10 C                     0.212424
     11 C                    -0.078194
     12 C                    -0.080272
     13 C                     0.208867
     14 O                    -0.210990
     15 O                    -0.167102
     16 O                    -0.175330
     17 O                    -0.213884
     18 C                    -0.144520
     19 C                     0.023524
     20 C                    -0.144779
     21 C                    -0.143572
     22 C                     0.025877
     23 O                    -0.188223
     24 H                     0.085498
     25 H                     0.085033
     26 H                     0.091786
     27 H                     0.077646
     28 H                     0.073020
     29 H                     0.077839
     30 H                     0.074036
     31 H                     0.083949
     32 O                    -0.227036
     33 C                    -0.129243
     34 C                     0.026065
     35 C                    -0.143572
     36 C                    -0.144558
     37 C                     0.025286
     38 O                    -0.186076
     39 H                     0.086269
     40 H                     0.084799
     41 H                     0.093164
     42 H                     0.082844
     43 H                     0.078257
     44 H                     0.074367
     45 H                     0.078247
     46 H                     0.073655
     47 H                     0.091355
     48 H                     0.091800
     49 H                     0.090578
     50 H                     0.108552
     51 H                     0.085801
     52 H                     0.080338
     53 H                     0.091320
     54 H                     0.098816
     55 H                     0.085688
     56 H                     0.106365
  ----------------------------------------
  Sum of atomic charges =     0.000000

                    Cartesian Multipole Moments
 -----------------------------------------------------------------
    Charge (ESU x 10^10)
                 0.0000
    Dipole Moment (Debye)
         X      -0.1997      Y       0.9256      Z       1.1143
       Tot       1.4623
    Quadrupole Moments (Debye-Ang)
        XX    -140.5080     XY       5.3819     YY    -166.0038
        XZ     -10.8708     YZ       1.1088     ZZ    -160.9904

 Total job time:  156.31s(wall), 7444.52s(cpu)
        *  Thank you very much for using Q-Chem.  Have a nice day.  *
