 Q-Chem 5.0, Q-Chem, Inc., Pleasanton, CA (2017)
 Q-Chem 5.0.1 for Intel X86 EM64T Linux

User input:
--------------------------------------------------------------
$molecule
0  1
O -3.94934 -3.66094 2.70899
C -3.26408 -4.56952 2.26188
C -3.36658 -6.02376 2.66595
C -3.86105 -7.01586 1.60055
C -4.02833 -6.47239 0.19885
O -3.60664 -7.39911 -0.71152
C -3.68429 -6.93593 -2.06381
C -3.19877 -8.02072 -3.01966
O -4.16631 -8.22382 -4.06153
C -5.31627 -8.83234 -3.67882
C -6.30725 -8.98139 -4.8086
C -7.61851 -8.20314 -4.62638
C -7.60835 -7.13352 -3.55283
O -8.44828 -7.00321 -2.67413
O -2.36579 -4.28361 1.2813
O -6.67452 -6.15311 -3.68538
O -5.54389 -9.23424 -2.54386
C -6.6795 -4.97428 -2.96666
C -5.87018 -8.44762 -6.19688
C -6.66614 -9.15287 -7.29616
C -8.03426 -8.53323 -7.09984
C -7.71825 -7.51537 -5.99977
O -6.38525 -7.14112 -6.25478
H -6.48391 -10.07616 -4.90653
H -8.48394 -8.87034 -4.41668
H -4.78407 -8.55936 -6.40352
H -6.25721 -8.80284 -8.27132
H -6.63891 -10.2634 -7.26808
H -8.32372 -8.01503 -8.04101
H -8.83612 -9.23803 -6.79018
H -8.46572 -6.69121 -6.00181
O -4.72647 -5.50339 -0.07383
C -2.1586 -3.02522 0.75718
C -2.00694 -6.63471 3.04454
C -2.21536 -7.80695 3.99829
C -2.82115 -8.82652 3.05856
C -2.72828 -8.07166 1.72523
O -1.57769 -7.27471 1.86725
H -4.04478 -6.04157 3.54984
H -4.85382 -7.43517 1.87726
H -1.82182 -2.32906 1.55477
H -1.30261 -5.89645 3.48724
H -1.20472 -8.16118 4.30422
H -2.81535 -7.58243 4.90631
H -2.16386 -9.72457 3.04931
H -3.86678 -9.12456 3.28941
H -2.70705 -8.81857 0.9038
H -3.0948 -2.64471 0.29553
H -1.373 -3.08188 -0.02386
H -5.79668 -4.3678 -3.25529
H -6.63428 -5.18419 -1.87792
H -7.60082 -4.39616 -3.19218
H -2.2277 -7.70854 -3.45922
H -3.01104 -8.98416 -2.49209
H -3.09943 -6.00095 -2.22004
H -4.7422 -6.70729 -2.27476
$end

$opt
CONSTRAINT
tors           1           2           3           4    +113.409
tors           3           4           5           6    +140.431
tors           4           5           6           7    -177.652
tors           5           6           7           8    -180.000
tors           6           7           8           9    +129.266
tors           7           8           9          10     -71.156
tors           8           9          10          11    +178.355
tors           9          10          11          12    -115.984
tors          11          12          13          14    -130.187
ENDCONSTRAINT
$end

$rem
JOBTYPE                   OPT
METHOD                    B3LYP
DFT_D                     d3_op
BASIS                     STO-3G
GEOM_OPT_MAX_CYCLES       100
GEOM_OPT_TOL_GRADIENT     300
GEOM_OPT_TOL_DISPLACEMENT 1200
GEOM_OPT_TOL_ENERGY       100
SYMMETRY                  False
THRESH                    12
SCF_CONVERGENCE           8
MAX_SUB_FILE_NUM          128
MEM_STATIC                400
MEM_TOTAL                 4000
$end
--------------------------------------------------------------

   15   -1510.1547939514      6.89E-09 Convergence criterion met
 Total energy in the final basis set = -1510.15479395
   14   -1510.2235995466      6.47E-09 Convergence criterion met
 Total energy in the final basis set = -1510.22359955
   14   -1510.2602552614      7.49E-09 Convergence criterion met
 Total energy in the final basis set = -1510.26025526
   14   -1510.2755495021      4.59E-09 Convergence criterion met
 Total energy in the final basis set = -1510.27554950
   14   -1510.2771979799      4.75E-09 Convergence criterion met
 Total energy in the final basis set = -1510.27719798
   13   -1510.2801291563      9.05E-09 Convergence criterion met
 Total energy in the final basis set = -1510.28012916
   12   -1510.2814481768      8.79E-09 Convergence criterion met
 Total energy in the final basis set = -1510.28144818
   12   -1510.2820377956      9.30E-09 Convergence criterion met
   11   -1510.2858717535      7.73E-09 Convergence criterion met
 Total energy in the final basis set = -1510.28587175
   11   -1510.2858890227      7.01E-09 Convergence criterion met
 Total energy in the final basis set = -1510.28588902
   11   -1510.2859102333      8.05E-09 Convergence criterion met
 Total energy in the final basis set = -1510.28591023
   11   -1510.2859274654      8.14E-09 Convergence criterion met
 Total energy in the final basis set = -1510.28592747
   11   -1510.2859376225      5.93E-09 Convergence criterion met
 Total energy in the final basis set = -1510.28593762
   10   -1510.2859419676      7.19E-09 Convergence criterion met
 Total energy in the final basis set = -1510.28594197

             Standard Nuclear Orientation (Angstroms)
    I     Atom           X                Y                Z
 ----------------------------------------------------------------
    1      O       4.3121509134    -2.8739785118    -0.2999591378
    2      C       4.2336952510    -1.6965164944     0.1113771219
    3      C       4.4113044484    -0.3871743165    -0.7319817148
    4      C       3.0763990921     0.4644255538    -0.8640765326
    5      C       1.8706307142    -0.1920608132    -0.1012579883
    6      O       1.0904274104     0.8062261154     0.5405343039
    7      C      -0.0170325329     0.1797885772     1.3083318125
    8      C      -0.8332159305     1.3409840186     1.9879106975
    9      O      -2.2737479027     1.1652873818     1.6851561684
   10      C      -2.5120607402     1.4607796190     0.3043744224
   11      C      -4.0249935071     1.2379122087    -0.0373225554
   12      C      -4.2386051656     0.0672352282    -1.0933549965
   13      C      -2.9658781531    -0.6478417155    -1.6673265120
   14      O      -2.7506950208    -0.8391858573    -2.8857356676
   15      O       3.9650810255    -1.3310863609     1.4718246909
   16      O      -2.1255180845    -1.1645946476    -0.6193147641
   17      O      -1.6302297459     1.8594746924    -0.4878321417
   18      C      -1.1226128364    -2.1030176191    -1.1971953454
   19      C      -4.8805377897     0.7007576193     1.1831597089
   20      C      -6.4132620677     0.8363983189     0.8247071510
   21      C      -6.6012200102    -0.3598622322    -0.1803498673
   22      C      -5.1332980979    -0.9384746162    -0.2371036979
   23      O      -4.6377293822    -0.7605790619     1.1450189622
   24      H      -4.4227952336     2.1881167217    -0.4385882917
   25      H      -4.7983685778     0.4371560357    -1.9702894262
   26      H      -4.5822791957     1.1166955941     2.1638605596
   27      H      -7.0323197116     0.7082481753     1.7268477305
   28      H      -6.6484469560     1.8128734059     0.3719609344
   29      H      -7.2953529258    -1.1170313752     0.2181299597
   30      H      -6.9609053121    -0.0359635463    -1.1700563690
   31      H      -5.0545997096    -1.9995275257    -0.5439974141
   32      O       1.5880861581    -1.4159957711    -0.0884522473
   33      C       3.6511683261    -2.5427635276     2.2611268988
   34      C       5.3653305274     0.6772894871    -0.0357918985
   35      C       5.7992211303     1.7357141133    -1.1257963246
   36      C       4.4764298496     2.5745578157    -1.2779289566
   37      C       3.5328476738     1.8481996663    -0.2409812735
   38      O       4.4539291654     1.4421740278     0.8455452466
   39      H       4.7904121442    -0.6837186230    -1.7255886446
   40      H       2.7819005045     0.5745093814    -1.9246876731
   41      H       4.4804272562    -3.2788494582     2.2361559101
   42      H       6.1938340026     0.2369199972     0.5518368972
   43      H       6.6287907763     2.3553209389    -0.7497332215
   44      H       6.1127921854     1.2580490578    -2.0677220149
   45      H       4.6291541315     3.6263460709    -0.9884900730
   46      H       4.0680286307     2.5462309539    -2.3009221927
   47      H       2.6985754303     2.4551022220     0.1592698909
   48      H       2.7304141518    -3.0347370574     1.8850450140
   49      H       3.4911125820    -2.1990971705     3.2995521178
   50      H      -0.1286306018    -1.8968742252    -0.7389833267
   51      H      -1.0863781690    -1.9662377598    -2.2955831400
   52      H      -1.4319386268    -3.1409845752    -0.9636512969
   53      H      -0.7539880838     1.3066243165     3.0916574427
   54      H      -0.4567293746     2.3180903531     1.6139490961
   55      H       0.3949364062    -0.5244470030     2.0620390142
   56      H      -0.7108531358    -0.3802072420     0.6398025231
 ----------------------------------------------------------------

   10   -1510.2859421413      9.93E-09 Convergence criterion met
 Total energy in the final basis set = -1510.28594214
 Final energy is   -1510.28594214129
 **  OPTIMIZATION CONVERGED  **

                    Orbital Energies (a.u.)
 --------------------------------------------------------------

 Alpha MOs
 -- Occupied --
-18.945 -18.937 -18.930 -18.925 -18.889 -18.886 -18.879 -18.876
-18.874 -18.867 -10.108 -10.102 -10.099 -10.092 -10.076 -10.067
-10.062 -10.060 -10.059 -10.057 -10.057 -10.041 -10.039 -10.039
-10.038 -10.034 -10.022 -10.021 -10.019 -10.018  -1.021  -1.014
 -1.006  -1.002  -0.971  -0.968  -0.943  -0.938  -0.932  -0.928
 -0.764  -0.762  -0.728  -0.722  -0.715  -0.706  -0.694  -0.654
 -0.649  -0.617  -0.598  -0.582  -0.546  -0.545  -0.538  -0.536
 -0.518  -0.512  -0.489  -0.473  -0.469  -0.463  -0.445  -0.441
 -0.434  -0.431  -0.428  -0.414  -0.410  -0.407  -0.405  -0.400
 -0.390  -0.381  -0.369  -0.367  -0.363  -0.359  -0.347  -0.346
 -0.342  -0.341  -0.337  -0.332  -0.329  -0.323  -0.321  -0.309
 -0.308  -0.305  -0.304  -0.301  -0.298  -0.289  -0.284  -0.276
 -0.272  -0.260  -0.255  -0.246  -0.242  -0.235  -0.233  -0.182
 -0.179  -0.173  -0.169  -0.159  -0.158  -0.151  -0.144  -0.144
 -0.142

          Ground-State Mulliken Net Atomic Charges

     Atom                 Charge (a.u.)
  ----------------------------------------
      1 O                    -0.212085
      2 C                     0.210842
      3 C                    -0.080359
      4 C                    -0.076896
      5 C                     0.220878
      6 O                    -0.163846
      7 C                    -0.055198
      8 C                    -0.047738
      9 O                    -0.167973
     10 C                     0.210317
     11 C                    -0.078674
     12 C                    -0.079024
     13 C                     0.208759
     14 O                    -0.210827
     15 O                    -0.171468
     16 O                    -0.175534
     17 O                    -0.215681
     18 C                    -0.152084
     19 C                     0.024681
     20 C                    -0.144706
     21 C                    -0.143426
     22 C                     0.026005
     23 O                    -0.186268
     24 H                     0.085705
     25 H                     0.086255
     26 H                     0.091323
     27 H                     0.078061
     28 H                     0.073205
     29 H                     0.078348
     30 H                     0.074451
     31 H                     0.083180
     32 O                    -0.221196
     33 C                    -0.129147
     34 C                     0.026052
     35 C                    -0.143954
     36 C                    -0.144183
     37 C                     0.023623
     38 O                    -0.187738
     39 H                     0.084394
     40 H                     0.087884
     41 H                     0.088147
     42 H                     0.083618
     43 H                     0.077497
     44 H                     0.073806
     45 H                     0.077754
     46 H                     0.073814
     47 H                     0.092492
     48 H                     0.091081
     49 H                     0.087870
     50 H                     0.104864
     51 H                     0.096799
     52 H                     0.079553
     53 H                     0.092080
     54 H                     0.097753
     55 H                     0.087060
     56 H                     0.109855
  ----------------------------------------
  Sum of atomic charges =    -0.000000

                    Cartesian Multipole Moments
 -----------------------------------------------------------------
    Charge (ESU x 10^10)
                 0.0000
    Dipole Moment (Debye)
         X      -1.1999      Y       1.8358      Z       0.7695
       Tot       2.3242
    Quadrupole Moments (Debye-Ang)
        XX    -142.6139     XY       0.7712     YY    -161.9753
        XZ      -2.8844     YZ      -3.3284     ZZ    -161.2471

 Total job time:  93.85s(wall), 4469.07s(cpu)
        *  Thank you very much for using Q-Chem.  Have a nice day.  *
