 Q-Chem 5.0, Q-Chem, Inc., Pleasanton, CA (2017)
 Q-Chem 5.0.1 for Intel X86 EM64T Linux

User input:
--------------------------------------------------------------
$molecule
0  1
O -3.94934 -3.66094 2.70899
C -3.26408 -4.56952 2.26188
C -3.36658 -6.02376 2.66595
C -4.05259 -6.98097 1.67753
C -4.40073 -6.41257 0.31966
O -3.99873 -7.27411 -0.66094
C -4.00315 -6.68428 -1.9653
C -3.54452 -7.70243 -3.00412
O -4.41078 -7.65776 -4.14888
C -5.69585 -8.02718 -3.92245
C -6.56411 -7.92133 -5.15355
C -7.82498 -7.06118 -4.9844
C -7.85302 -6.16245 -3.76448
O -8.80528 -6.01926 -3.01132
O -2.43131 -4.30125 1.22058
O -6.79377 -5.32249 -3.60951
O -6.0993 -8.52775 -2.87874
C -6.74749 -4.29062 -2.69408
C -5.93444 -7.25046 -6.399
C -6.66795 -7.70837 -7.6607
C -7.98368 -6.97457 -7.5079
C -7.7029 -6.17019 -6.23558
O -6.32188 -5.9034 -6.30168
H -6.83019 -8.9701 -5.41553
H -8.76617 -7.65477 -4.98343
H -4.84718 -7.44329 -6.52063
H -6.12475 -7.27971 -8.53347
H -6.74936 -8.80948 -7.78638
H -8.10743 -6.29062 -8.37695
H -8.88111 -7.62183 -7.40216
H -8.3689 -5.28035 -6.18307
O -5.1077 -5.42883 0.14188
C -2.25837 -3.05231 0.66257
C -2.00069 -6.70643 2.8514
C -2.1352 -7.87157 3.82692
C -2.92242 -8.85227 2.98444
C -2.97534 -8.0986 1.64802
O -1.775 -7.36409 1.62691
H -3.92039 -6.02089 3.63292
H -5.01763 -7.34618 2.09389
H -1.87177 -2.3429 1.42516
H -1.20361 -6.00823 3.1891
H -1.11174 -8.2809 3.98645
H -2.5869 -7.62154 4.81097
H -2.32459 -9.78596 2.88771
H -3.94082 -9.09155 3.36001
H -3.11371 -8.84035 0.83292
H -3.22203 -2.67901 0.25463
H -1.52391 -3.12309 -0.16566
H -5.76374 -3.78308 -2.76636
H -6.87718 -4.68357 -1.66435
H -7.54879 -3.55277 -2.91176
H -2.48705 -7.51439 -3.28604
H -3.58438 -8.73377 -2.58388
H -3.373 -5.76829 -2.02591
H -5.04161 -6.36947 -2.16675
$end

$opt
CONSTRAINT
tors           1           2           3           4    +104.628
tors           3           4           5           6    +132.752
tors           4           5           6           7    -166.226
tors           5           6           7           8    -180.000
tors           6           7           8           9    +134.946
tors           7           8           9          10     -64.656
tors           8           9          10          11    +178.355
tors           9          10          11          12    -125.049
tors          11          12          13          14    -135.192
ENDCONSTRAINT
$end

$rem
JOBTYPE                   OPT
METHOD                    B3LYP
DFT_D                     d3_op
BASIS                     STO-3G
GEOM_OPT_MAX_CYCLES       100
GEOM_OPT_TOL_GRADIENT     300
GEOM_OPT_TOL_DISPLACEMENT 1200
GEOM_OPT_TOL_ENERGY       100
SYMMETRY                  False
THRESH                    12
SCF_CONVERGENCE           8
MAX_SUB_FILE_NUM          128
MEM_STATIC                400
MEM_TOTAL                 4000
$end
--------------------------------------------------------------

   15   -1510.1527469954      7.22E-09 Convergence criterion met
 Total energy in the final basis set = -1510.15274700
   13   -1510.2216810272      9.48E-09 Convergence criterion met
 Total energy in the final basis set = -1510.22168103
   14   -1510.2584253608      6.67E-09 Convergence criterion met
 Total energy in the final basis set = -1510.25842536
   14   -1510.2737301952      4.82E-09 Convergence criterion met
 Total energy in the final basis set = -1510.27373020
   14   -1510.2760253642      4.18E-09 Convergence criterion met
 Total energy in the final basis set = -1510.27602536
   13   -1510.2786372687      9.68E-09 Convergence criterion met
 Total energy in the final basis set = -1510.27863727
   13   -1510.2799220679      6.14E-09 Convergence criterion met
 Total energy in the final basis set = -1510.27992207
   13   -1510.2804929754      2.23E-09 Convergence criterion met
   11   -1510.2841066171      5.84E-09 Convergence criterion met
 Total energy in the final basis set = -1510.28410662
   11   -1510.2841195996      4.75E-09 Convergence criterion met
 Total energy in the final basis set = -1510.28411960
    9   -1510.2841318572      9.04E-09 Convergence criterion met
 Total energy in the final basis set = -1510.28413186
   10   -1510.2841426565      5.28E-09 Convergence criterion met
 Total energy in the final basis set = -1510.28414266
    9   -1510.2841490096      6.89E-09 Convergence criterion met
 Total energy in the final basis set = -1510.28414901
    9   -1510.2841514727      8.20E-09 Convergence criterion met
 Total energy in the final basis set = -1510.28415147

             Standard Nuclear Orientation (Angstroms)
    I     Atom           X                Y                Z
 ----------------------------------------------------------------
    1      O       4.1037457999    -2.9349693532    -0.1788277612
    2      C       4.1124914234    -1.7597473866     0.2462871677
    3      C       4.5385833222    -0.4740872373    -0.5420186163
    4      C       3.3125756926     0.4253047204    -1.0083962309
    5      C       1.9482834181    -0.0886633367    -0.4175236732
    6      O       1.2020245813     0.9907157201     0.1302021595
    7      C       0.0911154200     0.4735467688     0.9693262948
    8      C      -0.6865600054     1.7194369066     1.5387571620
    9      O      -2.1503287715     1.5219700723     1.4105786294
   10      C      -2.5126016506     1.4609953177     0.0252279660
   11      C      -4.0534680749     1.2104096226    -0.1188692171
   12      C      -4.3737488124    -0.0630827658    -1.0134710022
   13      C      -3.1599044496    -0.8686161166    -1.5963611436
   14      O      -3.0829241347    -1.2786255705    -2.7768969667
   15      O       3.6928570655    -1.3727285883     1.5613721896
   16      O      -2.1988056541    -1.1863577135    -0.5760911458
   17      O      -1.7140658428     1.6572753752    -0.9169715948
   18      C      -1.2121284421    -2.1716175804    -1.1002198099
   19      C      -4.7707694278     0.8183454291     1.2381798646
   20      C      -6.3324200186     0.9499199496     1.0397450221
   21      C      -6.6388918696    -0.3267786343     0.1727710938
   22      C      -5.1940676042    -0.9490191632     0.0288806835
   23      O      -4.5520475870    -0.6444453079     1.3260286846
   24      H      -4.4972100540     2.1163998819    -0.5719212952
   25      H      -5.0033702626     0.2129055170    -1.8774947389
   26      H      -4.3568961975     1.3263872698     2.1294627635
   27      H      -6.8481266469     0.9106283080     2.0123303418
   28      H      -6.6097524901     1.8871048985     0.5312125950
   29      H      -7.3071960090    -1.0245013507     0.7021485360
   30      H      -7.0846562789    -0.0831630832    -0.8047169288
   31      H      -5.1669519624    -2.0375845594    -0.1722160058
   32      O       1.5667063040    -1.2848752015    -0.3991622813
   33      C       3.1497002270    -2.5477107131     2.2788014075
   34      C       5.3623193305     0.5760834177     0.3223281683
   35      C       6.1388257002     1.5159460999    -0.6818130560
   36      C       4.9583952277     2.3909456780    -1.2451813438
   37      C       3.7348932174     1.8320655168    -0.4163259809
   38      O       4.3268427599     1.4672971066     0.8924719436
   39      H       5.1207513588    -0.8072850204    -1.4188142595
   40      H       3.2308455954     0.4419247321    -2.1112363083
   41      H       3.8900861515    -3.3709574826     2.3405932144
   42      H       5.9761321275     0.1292475177     1.1277302054
   43      H       6.8752699403     2.1320627898    -0.1416097226
   44      H       6.6605892475     0.9456000857    -1.4668212796
   45      H       5.1099193670     3.4612676527    -1.0338069746
   46      H       4.8147685428     2.2625493356    -2.3301172042
   47      H       2.8901176400     2.5331577348    -0.2792340803
   48      H       2.2356889549    -2.9314223929     1.7797121866
   49      H       2.8977804164    -2.1966452375     3.2963867917
   50      H      -0.1873660873    -1.8538825288    -0.7983430532
   51      H      -1.3011850757    -2.2238213723    -2.2027759302
   52      H      -1.4380646574    -3.1654819853    -0.6655305648
   53      H      -0.5006605707     1.8566629355     2.6215014398
   54      H      -0.3553462141     2.6275438679     0.9882202092
   55      H       0.5041273385    -0.1488445909     1.7916068117
   56      H      -0.6165353934    -0.1508871238     0.3803334621
 ----------------------------------------------------------------

    9   -1510.2841518067      5.60E-09 Convergence criterion met
 Total energy in the final basis set = -1510.28415181
 Final energy is   -1510.28415180674
 **  OPTIMIZATION CONVERGED  **

                    Orbital Energies (a.u.)
 --------------------------------------------------------------

 Alpha MOs
 -- Occupied --
-18.944 -18.937 -18.927 -18.927 -18.888 -18.887 -18.883 -18.873
-18.871 -18.869 -10.110 -10.102 -10.095 -10.094 -10.077 -10.069
-10.061 -10.059 -10.059 -10.058 -10.058 -10.041 -10.040 -10.037
-10.035 -10.034 -10.021 -10.020 -10.020 -10.019  -1.022  -1.014
 -1.004  -1.003  -0.970  -0.969  -0.944  -0.938  -0.930  -0.929
 -0.764  -0.762  -0.728  -0.722  -0.714  -0.706  -0.694  -0.656
 -0.647  -0.617  -0.597  -0.582  -0.546  -0.545  -0.537  -0.537
 -0.518  -0.511  -0.489  -0.473  -0.468  -0.463  -0.446  -0.442
 -0.433  -0.432  -0.428  -0.414  -0.409  -0.407  -0.406  -0.399
 -0.390  -0.382  -0.371  -0.367  -0.363  -0.358  -0.347  -0.345
 -0.342  -0.338  -0.338  -0.331  -0.331  -0.324  -0.320  -0.311
 -0.308  -0.306  -0.303  -0.300  -0.298  -0.290  -0.284  -0.276
 -0.272  -0.260  -0.254  -0.248  -0.240  -0.234  -0.234  -0.182
 -0.180  -0.172  -0.169  -0.159  -0.157  -0.149  -0.147  -0.144
 -0.143

          Ground-State Mulliken Net Atomic Charges

     Atom                 Charge (a.u.)
  ----------------------------------------
      1 O                    -0.210474
      2 C                     0.210113
      3 C                    -0.080656
      4 C                    -0.076447
      5 C                     0.221331
      6 O                    -0.164733
      7 C                    -0.053133
      8 C                    -0.047050
      9 O                    -0.169181
     10 C                     0.212750
     11 C                    -0.078824
     12 C                    -0.078939
     13 C                     0.209370
     14 O                    -0.212748
     15 O                    -0.172421
     16 O                    -0.176429
     17 O                    -0.215882
     18 C                    -0.153247
     19 C                     0.023932
     20 C                    -0.144507
     21 C                    -0.143663
     22 C                     0.025888
     23 O                    -0.187303
     24 H                     0.085485
     25 H                     0.085905
     26 H                     0.092087
     27 H                     0.077935
     28 H                     0.073086
     29 H                     0.078108
     30 H                     0.074394
     31 H                     0.083041
     32 O                    -0.217208
     33 C                    -0.129454
     34 C                     0.025761
     35 C                    -0.143447
     36 C                    -0.144812
     37 C                     0.023515
     38 O                    -0.188671
     39 H                     0.084364
     40 H                     0.087721
     41 H                     0.088802
     42 H                     0.084745
     43 H                     0.077557
     44 H                     0.073750
     45 H                     0.077887
     46 H                     0.073695
     47 H                     0.092163
     48 H                     0.091479
     49 H                     0.088071
     50 H                     0.106792
     51 H                     0.096461
     52 H                     0.078063
     53 H                     0.092794
     54 H                     0.095718
     55 H                     0.086638
     56 H                     0.109826
  ----------------------------------------
  Sum of atomic charges =    -0.000000

                    Cartesian Multipole Moments
 -----------------------------------------------------------------
    Charge (ESU x 10^10)
                -0.0000
    Dipole Moment (Debye)
         X      -0.4490      Y       2.0528      Z       1.0124
       Tot       2.3325
    Quadrupole Moments (Debye-Ang)
        XX    -139.6356     XY       0.3844     YY    -161.5236
        XZ      -4.0390     YZ      -4.7165     ZZ    -163.1781

 Total job time:  91.00s(wall), 4320.64s(cpu)
        *  Thank you very much for using Q-Chem.  Have a nice day.  *
