 Q-Chem 5.0, Q-Chem, Inc., Pleasanton, CA (2017)
 Q-Chem 5.0.1 for Intel X86 EM64T Linux

User input:
--------------------------------------------------------------
$molecule
0  1
O 4.1037457999 -2.9349693532 -0.1788277612
C 4.1124914234 -1.7597473866 0.2462871677
C 4.5385833222 -0.4740872373 -0.5420186163
C 3.3125756926 0.4253047204 -1.0083962309
C 1.9482834181 -0.0886633367 -0.4175236732
O 1.2020245813 0.9907157201 0.1302021595
C 0.09111542 0.4735467688 0.9693262948
C -0.6865600054 1.7194369066 1.538757162
O -2.1503287715 1.5219700723 1.4105786294
C -2.5126016506 1.4609953177 0.025227966
C -4.0534680749 1.2104096226 -0.1188692171
C -4.3737488124 -0.0630827658 -1.0134710022
C -3.1599044496 -0.8686161166 -1.5963611436
O -3.0829241347 -1.2786255705 -2.7768969667
O 3.6928570655 -1.3727285883 1.5613721896
O -2.1988056541 -1.1863577135 -0.5760911458
O -1.7140658428 1.6572753752 -0.9169715948
C -1.2121284421 -2.1716175804 -1.1002198099
C -4.7707694278 0.8183454291 1.2381798646
C -6.3324200186 0.9499199496 1.0397450221
C -6.6388918696 -0.3267786343 0.1727710938
C -5.1940676042 -0.9490191632 0.0288806835
O -4.552047587 -0.6444453079 1.3260286846
H -4.497210054 2.1163998819 -0.5719212952
H -5.0033702626 0.212905517 -1.8774947389
H -4.3568961975 1.3263872698 2.1294627635
H -6.8481266469 0.910628308 2.0123303418
H -6.6097524901 1.8871048985 0.531212595
H -7.307196009 -1.0245013507 0.702148536
H -7.0846562789 -0.0831630832 -0.8047169288
H -5.1669519624 -2.0375845594 -0.1722160058
O 1.566706304 -1.2848752015 -0.3991622813
C 3.149700227 -2.5477107131 2.2788014075
C 5.3623193305 0.5760834177 0.3223281683
C 6.1388257002 1.5159460999 -0.681813056
C 4.9583952277 2.390945678 -1.2451813438
C 3.7348932174 1.8320655168 -0.4163259809
O 4.3268427599 1.4672971066 0.8924719436
H 5.1207513588 -0.8072850204 -1.4188142595
H 3.2308455954 0.4419247321 -2.1112363083
H 3.8900861515 -3.3709574826 2.3405932144
H 5.9761321275 0.1292475177 1.1277302054
H 6.8752699403 2.1320627898 -0.1416097226
H 6.6605892475 0.9456000857 -1.4668212796
H 5.109919367 3.4612676527 -1.0338069746
H 4.8147685428 2.2625493356 -2.3301172042
H 2.89011764 2.5331577348 -0.2792340803
H 2.2356889549 -2.9314223929 1.7797121866
H 2.8977804164 -2.1966452375 3.2963867917
H -0.1873660873 -1.8538825288 -0.7983430532
H -1.3011850757 -2.2238213723 -2.2027759302
H -1.4380646574 -3.1654819853 -0.6655305648
H -0.5006605707 1.8566629355 2.6215014398
H -0.3553462141 2.6275438679 0.9882202092
H 0.5041273385 -0.1488445909 1.7916068117
H -0.6165353934 -0.1508871238 0.3803334621
$end

$rem
JOBTYPE                   OPT
METHOD                    B3LYP
DFT_D                     d3_op
BASIS                     STO-3G
GEOM_OPT_MAX_CYCLES       100
GEOM_OPT_TOL_GRADIENT     300
GEOM_OPT_TOL_DISPLACEMENT 1200
GEOM_OPT_TOL_ENERGY       100
SYMMETRY                  False
THRESH                    12
SCF_CONVERGENCE           8
MAX_SUB_FILE_NUM          128
MEM_STATIC                400
MEM_TOTAL                 4000
$end
--------------------------------------------------------------

   16   -1510.2840882627      6.66E-09 Convergence criterion met
 Total energy in the final basis set = -1510.28408826
   14   -1510.2592279393      7.64E-09 Convergence criterion met
 Total energy in the final basis set = -1510.25922794
   14   -1510.2826212504      5.97E-09 Convergence criterion met
 Total energy in the final basis set = -1510.28262125
   15   -1510.2844493999      2.77E-09 Convergence criterion met
 Total energy in the final basis set = -1510.28444940
   14   -1510.2853684113      6.27E-09 Convergence criterion met
 Total energy in the final basis set = -1510.28536841
   14   -1510.2852431942      7.60E-09 Convergence criterion met
 Total energy in the final basis set = -1510.28524319
   13   -1510.2858712401      9.80E-09 Convergence criterion met
 Total energy in the final basis set = -1510.28587124
   14   -1510.2860518856      4.23E-09 Convergence criterion met
   11   -1510.2925136029      1.55E-09 Convergence criterion met
 Total energy in the final basis set = -1510.29251360
    9   -1510.2925131264      5.16E-09 Convergence criterion met
 Total energy in the final basis set = -1510.29251313
    9   -1510.2925154916      3.45E-09 Convergence criterion met
 Total energy in the final basis set = -1510.29251549
    9   -1510.2925196787      6.58E-09 Convergence criterion met
 Total energy in the final basis set = -1510.29251968
    9   -1510.2925261968      6.34E-09 Convergence criterion met
 Total energy in the final basis set = -1510.29252620
    9   -1510.2925292064      4.66E-09 Convergence criterion met
 Total energy in the final basis set = -1510.29252921

             Standard Nuclear Orientation (Angstroms)
    I     Atom           X                Y                Z
 ----------------------------------------------------------------
    1      O       2.6541129041    -3.0692903211     0.3780514382
    2      C       3.0810888085    -1.8986502366     0.4807721390
    3      C       3.1501430375    -0.8191512034    -0.6537597130
    4      C       2.2663826057     0.4659401566    -0.3697477137
    5      C       1.4138536797     0.3646461673     0.9397296044
    6      O       1.2556632600     1.6590604928     1.5181500413
    7      C       0.2104364539     1.6335852656     2.5679637920
    8      C      -0.9456201960     2.6301064334     2.1660813723
    9      O      -2.1875736255     2.0154001290     1.6361320290
   10      C      -1.9874613712     1.3838080270     0.3688678710
   11      C      -3.3911985367     1.0569273955    -0.2498398002
   12      C      -3.3447093992    -0.0138284825    -1.4179600956
   13      C      -1.9221617954    -0.6333382898    -1.6805207181
   14      O      -1.1774044247    -0.4049403332    -2.6607814573
   15      O       3.6363385439    -1.3447346088     1.6797890668
   16      O      -1.6587057698    -1.5862220181    -0.6530161141
   17      O      -0.8725969576     1.1844265760    -0.1614387994
   18      C      -0.3117060873    -2.1863594466    -0.8147430585
   19      C      -4.3980900964     0.3670619472     0.7668109958
   20      C      -5.8586275992     0.5326800342     0.1894305647
   21      C      -5.8348606801    -0.5083066537    -0.9912290455
   22      C      -4.3711360460    -1.0911799775    -0.8578652945
   23      O      -4.1244723616    -1.0765092686     0.6029855807
   24      H      -3.8073250420     2.0152138719    -0.6145154655
   25      H      -3.6937491264     0.4291585561    -2.3671922527
   26      H      -4.2606249641     0.6783095611     1.8202715848
   27      H      -6.6059124835     0.2605510866     0.9518590199
   28      H      -6.0594868265     1.5609276545    -0.1512863120
   29      H      -6.5811770219    -1.3047122610    -0.8424353832
   30      H      -6.0078484826    -0.0416855285    -1.9742246863
   31      H      -4.2301273551    -2.1116758130    -1.2625771036
   32      O       0.9000549931    -0.6773025271     1.4164936104
   33      C       3.4890678998    -2.3118927804     2.7899475546
   34      C       4.5907659002    -0.1554442223    -0.7649385098
   35      C       4.6754009529     0.6256175750    -2.1372842160
   36      C       3.8124031386     1.9023110454    -1.8172527463
   37      C       3.3705399220     1.6031623368    -0.3318801035
   38      O       4.5503450524     0.9224444025     0.2492109029
   39      H       2.8482728153    -1.3078227099    -1.5962557203
   40      H       1.5460432599     0.6366585271    -1.1926232517
   41      H       3.9670386102    -3.2846183376     2.5547746638
   42      H       5.4318120630    -0.8464230995    -0.5630324447
   43      H       5.7201955227     0.8896275870    -2.3659287433
   44      H       4.2677415491     0.0369803435    -2.9745347027
   45      H       4.4191161057     2.8207596341    -1.8606332714
   46      H       2.9496662199     2.0145271846    -2.4931408967
   47      H       3.0856078694     2.4838124341     0.2746702006
   48      H       2.4191387974    -2.4912090392     3.0232491580
   49      H       3.9876583936    -1.8536000286     3.6636977172
   50      H       0.3189709509    -1.8383331355     0.0339317209
   51      H       0.1246342861    -1.8659881876    -1.7811128889
   52      H      -0.4152128749    -3.2875051796    -0.7877230356
   53      H      -1.2844981745     3.1814445358     3.0661641011
   54      H      -0.5314744855     3.3597299640     1.4348379497
   55      H       0.6719977206     1.9717605151     3.5191289011
   56      H      -0.1607912338     0.5913000053     2.6865389638
 ----------------------------------------------------------------

    9   -1510.2925289824      2.26E-09 Convergence criterion met
 Total energy in the final basis set = -1510.29252898
 Final energy is   -1510.29252898238
 **  OPTIMIZATION CONVERGED  **

                    Orbital Energies (a.u.)
 --------------------------------------------------------------

 Alpha MOs
 -- Occupied --
-18.945 -18.941 -18.923 -18.912 -18.889 -18.885 -18.884 -18.883
-18.864 -18.852 -10.111 -10.110 -10.090 -10.084 -10.084 -10.076
-10.059 -10.057 -10.056 -10.055 -10.055 -10.040 -10.035 -10.031
-10.030 -10.024 -10.019 -10.017 -10.016 -10.015  -1.026  -1.016
 -1.000  -0.991  -0.967  -0.966  -0.949  -0.942  -0.926  -0.916
 -0.762  -0.759  -0.729  -0.719  -0.714  -0.704  -0.695  -0.652
 -0.639  -0.621  -0.594  -0.580  -0.544  -0.542  -0.535  -0.534
 -0.513  -0.510  -0.486  -0.472  -0.466  -0.459  -0.448  -0.436
 -0.431  -0.429  -0.426  -0.409  -0.406  -0.405  -0.401  -0.400
 -0.389  -0.387  -0.378  -0.363  -0.359  -0.355  -0.346  -0.342
 -0.337  -0.335  -0.331  -0.327  -0.327  -0.320  -0.317  -0.314
 -0.307  -0.304  -0.301  -0.296  -0.293  -0.286  -0.281  -0.272
 -0.271  -0.262  -0.253  -0.243  -0.232  -0.231  -0.227  -0.194
 -0.178  -0.168  -0.166  -0.161  -0.148  -0.142  -0.141  -0.140
 -0.138

          Ground-State Mulliken Net Atomic Charges

     Atom                 Charge (a.u.)
  ----------------------------------------
      1 O                    -0.215087
      2 C                     0.209912
      3 C                    -0.081041
      4 C                    -0.077979
      5 C                     0.233647
      6 O                    -0.168688
      7 C                    -0.055228
      8 C                    -0.049446
      9 O                    -0.171583
     10 C                     0.217183
     11 C                    -0.077762
     12 C                    -0.080605
     13 C                     0.210739
     14 O                    -0.226501
     15 O                    -0.169853
     16 O                    -0.172671
     17 O                    -0.212349
     18 C                    -0.148606
     19 C                     0.024721
     20 C                    -0.143698
     21 C                    -0.144721
     22 C                     0.027313
     23 O                    -0.185045
     24 H                     0.084591
     25 H                     0.081730
     26 H                     0.088499
     27 H                     0.077577
     28 H                     0.072126
     29 H                     0.077516
     30 H                     0.072935
     31 H                     0.086120
     32 O                    -0.216281
     33 C                    -0.128571
     34 C                     0.026240
     35 C                    -0.144139
     36 C                    -0.143781
     37 C                     0.024021
     38 O                    -0.187578
     39 H                     0.085764
     40 H                     0.099948
     41 H                     0.087942
     42 H                     0.082857
     43 H                     0.076927
     44 H                     0.074759
     45 H                     0.076691
     46 H                     0.075851
     47 H                     0.090415
     48 H                     0.090734
     49 H                     0.088229
     50 H                     0.105116
     51 H                     0.087769
     52 H                     0.080909
     53 H                     0.092352
     54 H                     0.092824
     55 H                     0.088592
     56 H                     0.108663
  ----------------------------------------
  Sum of atomic charges =    -0.000000

                    Cartesian Multipole Moments
 -----------------------------------------------------------------
    Charge (ESU x 10^10)
                -0.0000
    Dipole Moment (Debye)
         X      -1.2859      Y       2.9220      Z       0.5313
       Tot       3.2364
    Quadrupole Moments (Debye-Ang)
        XX    -150.3025     XY      -6.3014     YY    -158.7382
        XZ      -0.0178     YZ       2.7924     ZZ    -154.4681

 Total job time:  175.71s(wall), 8378.78s(cpu)
        *  Thank you very much for using Q-Chem.  Have a nice day.  *
