 Q-Chem 5.0, Q-Chem, Inc., Pleasanton, CA (2017)
 Q-Chem 5.0.1 for Intel X86 EM64T Linux

User input:
--------------------------------------------------------------
$molecule
0  1
O -3.94934 -3.66094 2.70899
C -3.26408 -4.56952 2.26188
C -3.36658 -6.02376 2.66595
C -3.86105 -7.01586 1.60055
C -4.02833 -6.47239 0.19885
O -3.36846 -7.27173 -0.69056
C -3.43934 -6.79327 -2.03789
C -2.68266 -7.73374 -2.97014
O -3.37521 -7.84198 -4.22375
C -4.54077 -8.53433 -4.18812
C -5.22873 -8.59773 -5.53102
C -6.59393 -7.89724 -5.59266
C -6.90416 -6.95259 -4.44894
O -7.93268 -6.95333 -3.7881
O -2.3696 -4.2854 1.2775
O -6.0064 -5.9543 -4.22487
O -4.99439 -9.08476 -3.19147
C -6.21411 -4.90136 -3.35687
C -4.51378 -7.89461 -6.71344
C -4.98323 -8.50113 -8.03676
C -6.39512 -7.95871 -8.11378
C -6.41146 -7.06171 -6.87248
O -5.08279 -6.61046 -6.7607
H -5.30415 -9.68083 -5.77701
H -7.44139 -8.61432 -5.66771
H -3.40462 -7.94119 -6.66418
H -4.37968 -8.02928 -8.84533
H -4.89366 -9.60606 -8.11362
H -6.48672 -7.34716 -9.03887
H -7.20144 -8.72312 -8.08041
H -7.18845 -6.27138 -6.971
O -4.78313 -5.55467 -0.10011
C -2.16809 -3.02902 0.74652
C -2.01063 -6.6438 3.04741
C -2.22924 -7.80372 4.01381
C -2.85481 -8.82461 3.08778
C -2.74864 -8.08914 1.74422
O -1.58837 -7.30456 1.87798
H -4.04581 -6.04028 3.54921
H -4.85957 -7.42287 1.87473
H -1.8315 -2.32761 1.53956
H -1.29779 -5.90818 3.48062
H -1.22055 -8.16737 4.31528
H -2.81905 -7.56493 4.92484
H -2.21656 -9.73622 3.09276
H -3.9069 -9.09666 3.32132
H -2.74359 -8.84439 0.92942
H -3.1069 -2.65421 0.28546
H -1.38463 -3.0871 -0.03658
H -5.31646 -4.24969 -3.35383
H -6.39048 -5.27706 -2.32707
H -7.09028 -4.30373 -3.687
H -1.64266 -7.36943 -3.10609
H -2.60552 -8.75304 -2.52561
H -3.07442 -5.7485 -2.16065
H -4.51387 -6.80642 -2.30064
$end

$opt
CONSTRAINT
tors           1           2           3           4    +113.409
tors           3           4           5           6    +128.324
tors           4           5           6           7    -177.825
tors           5           6           7           8    -180.000
tors           6           7           8           9    +142.774
tors           7           8           9          10     -71.156
tors           8           9          10          11    +179.272
tors           9          10          11          12    -115.984
tors          11          12          13          14    -130.187
ENDCONSTRAINT
$end

$rem
JOBTYPE                   OPT
METHOD                    B3LYP
DFT_D                     d3_op
BASIS                     STO-3G
GEOM_OPT_MAX_CYCLES       100
GEOM_OPT_TOL_GRADIENT     300
GEOM_OPT_TOL_DISPLACEMENT 1200
GEOM_OPT_TOL_ENERGY       100
SYMMETRY                  False
THRESH                    12
SCF_CONVERGENCE           8
MAX_SUB_FILE_NUM          128
MEM_STATIC                400
MEM_TOTAL                 4000
$end
--------------------------------------------------------------

   15   -1510.1559836845      6.30E-09 Convergence criterion met
 Total energy in the final basis set = -1510.15598368
   14   -1510.2244237394      6.25E-09 Convergence criterion met
 Total energy in the final basis set = -1510.22442374
   14   -1510.2607091403      7.05E-09 Convergence criterion met
 Total energy in the final basis set = -1510.26070914
   14   -1510.2756596076      5.50E-09 Convergence criterion met
 Total energy in the final basis set = -1510.27565961
   14   -1510.2795706542      3.51E-09 Convergence criterion met
 Total energy in the final basis set = -1510.27957065
   13   -1510.2805926012      3.08E-09 Convergence criterion met
 Total energy in the final basis set = -1510.28059260
   13   -1510.2808744066      6.65E-09 Convergence criterion met
 Total energy in the final basis set = -1510.28087441
   13   -1510.2815929484      2.38E-09 Convergence criterion met
   11   -1510.2851908042      4.14E-09 Convergence criterion met
 Total energy in the final basis set = -1510.28519080
   11   -1510.2851981198      4.23E-09 Convergence criterion met
 Total energy in the final basis set = -1510.28519812
   11   -1510.2851949404      6.96E-09 Convergence criterion met
 Total energy in the final basis set = -1510.28519494
   13   -1510.2851026161      5.91E-09 Convergence criterion met
 Total energy in the final basis set = -1510.28510262
   12   -1510.2851986632      8.64E-09 Convergence criterion met
 Total energy in the final basis set = -1510.28519866
    9   -1510.2852002532      6.74E-09 Convergence criterion met
 Total energy in the final basis set = -1510.28520025

             Standard Nuclear Orientation (Angstroms)
    I     Atom           X                Y                Z
 ----------------------------------------------------------------
    1      O       4.3418925812    -2.9093748946    -0.0509855608
    2      C       4.2249124635    -1.7106942579     0.2813914435
    3      C       4.5756318625    -0.4479895025    -0.5747868940
    4      C       3.2946313472     0.4095050407    -0.9666161515
    5      C       1.9776584495    -0.1815842860    -0.3433685088
    6      O       1.2596226913     0.8289022643     0.3520110648
    7      C       0.0463463827     0.2482433772     0.9797010516
    8      C      -0.7088564362     1.4043453472     1.7333934914
    9      O      -2.1696022909     1.1942864908     1.5793261514
   10      C      -2.5463169738     1.4723911889     0.2247045274
   11      C      -4.0830077619     1.2401404800     0.0300012010
   12      C      -4.3829736428     0.0560808455    -0.9899178746
   13      C      -3.1626909606    -0.6316583410    -1.6986669918
   14      O      -3.0804431792    -0.8264076113    -2.9325422699
   15      O       3.6859700777    -1.2684812000     1.5350503276
   16      O      -2.1881479852    -1.1024603128    -0.7506379938
   17      O      -1.7537253154     1.8850160583    -0.6507524613
   18      C      -1.2185470127    -2.0088962998    -1.4288323358
   19      C      -4.8131201854     0.7064744246     1.3299678906
   20      C      -6.3750712292     0.8106917044     1.1109632777
   21      C      -6.6337009987    -0.4110145043     0.1538724129
   22      C      -5.1648093400    -0.9583491418    -0.0382579521
   23      O      -4.5452378026    -0.7501280199     1.2882452489
   24      H      -4.5227466899     2.1843414785    -0.3399993925
   25      H      -5.0407363027     0.4086724231    -1.8039759060
   26      H      -4.4345529464     1.1423201853     2.2735797793
   27      H      -6.9090338353     0.6967512698     2.0676330515
   28      H      -6.6644040678     1.7722210636     0.6576982347
   29      H      -7.2652601841    -1.1747655002     0.6352082350
   30      H      -7.0993354384    -0.1174365839    -0.8003153699
   31      H      -5.0916506845    -2.0215964639    -0.3387940747
   32      O       1.5767605634    -1.3650540588    -0.4695355858
   33      C       3.1952294766    -2.4308253842     2.3087042265
   34      C       5.4244951149     0.6387884195     0.2174542975
   35      C       6.0730540092     1.6127024987    -0.8437905460
   36      C       4.8180071615     2.4525603955    -1.2872675214
   37      C       3.6895152357     1.8252705872    -0.3763592821
   38      O       4.4001892516     1.4786293974     0.8766682759
   39      H       5.1095687010    -0.7944705850    -1.4765850229
   40      H       3.1633774628     0.4413834624    -2.0643032187
   41      H       4.0000796686    -3.1700668296     2.4966884689
   42      H       6.1235444912     0.2193900710     0.9665417661
   43      H       6.8361166885     2.2475212370    -0.3660792245
   44      H       6.5383420597     1.0661979849    -1.6796629436
   45      H       4.9459907911     3.5227616827    -1.0600991283
   46      H       4.5916243097     2.3442349779    -2.3600555304
   47      H       2.8250757118     2.4822752491    -0.1632308103
   48      H       2.3634861037    -2.9399963740     1.7787859412
   49      H       2.8301288706    -2.0262027196     3.2704971604
   50      H      -0.1961373379    -1.7943434118    -1.0410963106
   51      H      -1.2692052521    -1.8491512287    -2.5234523290
   52      H      -1.4900030320    -3.0584747914    -1.1994378402
   53      H      -0.5121745155     1.3880740294     2.8225858358
   54      H      -0.3953501856     2.3827707659     1.3086524312
   55      H       0.3333010408    -0.5637811219     1.6813155764
   56      H      -0.6481996625    -0.1787445169     0.2226054163
 ----------------------------------------------------------------

   11   -1510.2852002680      3.84E-09 Convergence criterion met
 Total energy in the final basis set = -1510.28520027
 Final energy is   -1510.28520026799
 **  OPTIMIZATION CONVERGED  **

                    Orbital Energies (a.u.)
 --------------------------------------------------------------

 Alpha MOs
 -- Occupied --
-18.943 -18.937 -18.930 -18.929 -18.889 -18.887 -18.877 -18.875
-18.873 -18.872 -10.107 -10.101 -10.098 -10.095 -10.075 -10.065
-10.062 -10.060 -10.060 -10.060 -10.057 -10.041 -10.040 -10.038
-10.038 -10.036 -10.022 -10.020 -10.020 -10.019  -1.020  -1.014
 -1.006  -1.005  -0.971  -0.969  -0.942  -0.937  -0.932  -0.932
 -0.764  -0.763  -0.728  -0.722  -0.714  -0.707  -0.694  -0.657
 -0.649  -0.616  -0.598  -0.582  -0.546  -0.546  -0.538  -0.537
 -0.518  -0.512  -0.489  -0.474  -0.469  -0.464  -0.447  -0.440
 -0.434  -0.432  -0.427  -0.414  -0.411  -0.408  -0.406  -0.399
 -0.389  -0.381  -0.368  -0.367  -0.364  -0.359  -0.349  -0.346
 -0.342  -0.340  -0.338  -0.332  -0.330  -0.324  -0.321  -0.308
 -0.308  -0.305  -0.305  -0.301  -0.297  -0.291  -0.285  -0.277
 -0.272  -0.260  -0.254  -0.249  -0.242  -0.234  -0.233  -0.181
 -0.179  -0.174  -0.171  -0.158  -0.158  -0.151  -0.147  -0.144
 -0.142

          Ground-State Mulliken Net Atomic Charges

     Atom                 Charge (a.u.)
  ----------------------------------------
      1 O                    -0.209358
      2 C                     0.209891
      3 C                    -0.080092
      4 C                    -0.076695
      5 C                     0.219905
      6 O                    -0.164457
      7 C                    -0.054942
      8 C                    -0.047559
      9 O                    -0.167229
     10 C                     0.210744
     11 C                    -0.078609
     12 C                    -0.079182
     13 C                     0.208392
     14 O                    -0.210807
     15 O                    -0.170687
     16 O                    -0.175473
     17 O                    -0.217045
     18 C                    -0.151377
     19 C                     0.024769
     20 C                    -0.144806
     21 C                    -0.143326
     22 C                     0.025936
     23 O                    -0.186386
     24 H                     0.086022
     25 H                     0.086050
     26 H                     0.091120
     27 H                     0.078032
     28 H                     0.073172
     29 H                     0.078280
     30 H                     0.074490
     31 H                     0.083185
     32 O                    -0.223156
     33 C                    -0.129492
     34 C                     0.026128
     35 C                    -0.143668
     36 C                    -0.144509
     37 C                     0.023951
     38 O                    -0.187113
     39 H                     0.084718
     40 H                     0.086951
     41 H                     0.089050
     42 H                     0.083452
     43 H                     0.077672
     44 H                     0.073808
     45 H                     0.077917
     46 H                     0.073592
     47 H                     0.092624
     48 H                     0.091316
     49 H                     0.088780
     50 H                     0.106881
     51 H                     0.096150
     52 H                     0.079223
     53 H                     0.092119
     54 H                     0.096747
     55 H                     0.085901
     56 H                     0.109002
  ----------------------------------------
  Sum of atomic charges =     0.000000

                    Cartesian Multipole Moments
 -----------------------------------------------------------------
    Charge (ESU x 10^10)
                 0.0000
    Dipole Moment (Debye)
         X      -0.7972      Y       1.6956      Z       0.8752
       Tot       2.0680
    Quadrupole Moments (Debye-Ang)
        XX    -140.4007     XY       1.4249     YY    -162.4383
        XZ      -4.7547     YZ      -3.1034     ZZ    -162.3603

 Total job time:  93.05s(wall), 4435.37s(cpu)
        *  Thank you very much for using Q-Chem.  Have a nice day.  *
