 Q-Chem 5.0, Q-Chem, Inc., Pleasanton, CA (2017)
 Q-Chem 5.0.1 for Intel X86 EM64T Linux

User input:
--------------------------------------------------------------
$molecule
0  1
O 4.3418925812 -2.9093748946 -0.0509855608
C 4.2249124635 -1.7106942579 0.2813914435
C 4.5756318625 -0.4479895025 -0.574786894
C 3.2946313472 0.4095050407 -0.9666161515
C 1.9776584495 -0.181584286 -0.3433685088
O 1.2596226913 0.8289022643 0.3520110648
C 0.0463463827 0.2482433772 0.9797010516
C -0.7088564362 1.4043453472 1.7333934914
O -2.1696022909 1.1942864908 1.5793261514
C -2.5463169738 1.4723911889 0.2247045274
C -4.0830077619 1.24014048 0.030001201
C -4.3829736428 0.0560808455 -0.9899178746
C -3.1626909606 -0.631658341 -1.6986669918
O -3.0804431792 -0.8264076113 -2.9325422699
O 3.6859700777 -1.2684812 1.5350503276
O -2.1881479852 -1.1024603128 -0.7506379938
O -1.7537253154 1.8850160583 -0.6507524613
C -1.2185470127 -2.0088962998 -1.4288323358
C -4.8131201854 0.7064744246 1.3299678906
C -6.3750712292 0.8106917044 1.1109632777
C -6.6337009987 -0.4110145043 0.1538724129
C -5.16480934 -0.9583491418 -0.0382579521
O -4.5452378026 -0.7501280199 1.2882452489
H -4.5227466899 2.1843414785 -0.3399993925
H -5.0407363027 0.4086724231 -1.803975906
H -4.4345529464 1.1423201853 2.2735797793
H -6.9090338353 0.6967512698 2.0676330515
H -6.6644040678 1.7722210636 0.6576982347
H -7.2652601841 -1.1747655002 0.635208235
H -7.0993354384 -0.1174365839 -0.8003153699
H -5.0916506845 -2.0215964639 -0.3387940747
O 1.5767605634 -1.3650540588 -0.4695355858
C 3.1952294766 -2.4308253842 2.3087042265
C 5.4244951149 0.6387884195 0.2174542975
C 6.0730540092 1.6127024987 -0.843790546
C 4.8180071615 2.4525603955 -1.2872675214
C 3.6895152357 1.8252705872 -0.3763592821
O 4.4001892516 1.4786293974 0.8766682759
H 5.109568701 -0.794470585 -1.4765850229
H 3.1633774628 0.4413834624 -2.0643032187
H 4.0000796686 -3.1700668296 2.4966884689
H 6.1235444912 0.219390071 0.9665417661
H 6.8361166885 2.247521237 -0.3660792245
H 6.5383420597 1.0661979849 -1.6796629436
H 4.9459907911 3.5227616827 -1.0600991283
H 4.5916243097 2.3442349779 -2.3600555304
H 2.8250757118 2.4822752491 -0.1632308103
H 2.3634861037 -2.939996374 1.7787859412
H 2.8301288706 -2.0262027196 3.2704971604
H -0.1961373379 -1.7943434118 -1.0410963106
H -1.2692052521 -1.8491512287 -2.523452329
H -1.490003032 -3.0584747914 -1.1994378402
H -0.5121745155 1.3880740294 2.8225858358
H -0.3953501856 2.3827707659 1.3086524312
H 0.3333010408 -0.5637811219 1.6813155764
H -0.6481996625 -0.1787445169 0.2226054163
$end

$rem
JOBTYPE                   OPT
METHOD                    B3LYP
DFT_D                     d3_op
BASIS                     STO-3G
GEOM_OPT_MAX_CYCLES       100
GEOM_OPT_TOL_GRADIENT     300
GEOM_OPT_TOL_DISPLACEMENT 1200
GEOM_OPT_TOL_ENERGY       100
SYMMETRY                  False
THRESH                    12
SCF_CONVERGENCE           8
MAX_SUB_FILE_NUM          128
MEM_STATIC                400
MEM_TOTAL                 4000
$end
--------------------------------------------------------------

   16   -1510.2851986220      5.48E-09 Convergence criterion met
 Total energy in the final basis set = -1510.28519862
   15   -1510.2195630837      4.90E-09 Convergence criterion met
 Total energy in the final basis set = -1510.21956308
   15   -1510.2848610507      3.69E-09 Convergence criterion met
 Total energy in the final basis set = -1510.28486105
   15   -1510.2827553041      2.35E-09 Convergence criterion met
 Total energy in the final basis set = -1510.28275530
   14   -1510.2853869363      6.17E-09 Convergence criterion met
 Total energy in the final basis set = -1510.28538694
   14   -1510.2853435847      2.32E-09 Convergence criterion met
 Total energy in the final basis set = -1510.28534358
   14   -1510.2857645285      3.88E-09 Convergence criterion met
 Total energy in the final basis set = -1510.28576453
   14   -1510.2862658674      2.91E-09 Convergence criterion met
   13   -1510.2886698433      6.54E-09 Convergence criterion met
 Total energy in the final basis set = -1510.28866984
   12   -1510.2887062916      5.91E-09 Convergence criterion met
 Total energy in the final basis set = -1510.28870629
   12   -1510.2887355573      2.78E-09 Convergence criterion met
 Total energy in the final basis set = -1510.28873556
   11   -1510.2887514365      5.01E-09 Convergence criterion met
 Total energy in the final basis set = -1510.28875144
   10   -1510.2887606123      7.82E-09 Convergence criterion met
 Total energy in the final basis set = -1510.28876061
    9   -1510.2887643902      5.61E-09 Convergence criterion met
 Total energy in the final basis set = -1510.28876439

             Standard Nuclear Orientation (Angstroms)
    I     Atom           X                Y                Z
 ----------------------------------------------------------------
    1      O       4.3816953753    -2.8881888054     1.0824317017
    2      C       4.0020658576    -1.7176359462     0.8657508336
    3      C       4.5123278421    -0.7442718248    -0.2473803705
    4      C       3.3581073048     0.0450561374    -1.0045597573
    5      C       1.9168595877    -0.3322944746    -0.4951890525
    6      O       1.3418692035     0.7708730644     0.1993665918
    7      C       0.0101947128     0.4106573240     0.7471047242
    8      C      -0.6144430786     1.7314524303     1.3225690172
    9      O      -2.0778409533     1.5405257183     1.4648803220
   10      C      -2.7092905674     1.7076937229     0.1897959325
   11      C      -4.1827770714     1.1700871099     0.2406112202
   12      C      -4.4750305241     0.1617129208    -0.9539588645
   13      C      -3.3038708504    -0.0484409843    -1.9777665065
   14      O      -3.3510535926     0.2023788879    -3.2017502067
   15      O       3.0099504144    -1.0366119025     1.6455375359
   16      O      -2.1730929899    -0.6583288521    -1.3342682706
   17      O      -2.1439601021     2.1957998405    -0.8140110734
   18      C      -1.1465967164    -0.9986618143    -2.3526887069
   19      C      -4.4707345944     0.2431097428     1.4923345784
   20      C      -6.0303157416     0.0138720723     1.6031394566
   21      C      -6.2723581084    -1.0217443618     0.4436965556
   22      C      -4.8123871904    -1.1650262867    -0.1412906493
   23      O      -3.9499767813    -1.0743241068     1.0576721939
   24      H      -4.8737999726     2.0322163473     0.1990063714
   25      H      -5.3455655390     0.4997746265    -1.5429750580
   26      H      -3.9674351037     0.5708068139     2.4213119575
   27      H      -6.2870030293    -0.4125441593     2.5857915380
   28      H      -6.5977182624     0.9483415388     1.4654255055
   29      H      -6.6256079763    -1.9895160523     0.8340636528
   30      H      -6.9897393621    -0.6609155466    -0.3107696929
   31      H      -4.6129701409    -2.1044144577    -0.6924288780
   32      O       1.3217125048    -1.4134281984    -0.7218665796
   33      C       2.4271098817    -1.9542563424     2.6505914271
   34      C       5.3456016972     0.4707631424     0.3595595190
   35      C       6.1652414466     1.1412985910    -0.8128751608
   36      C       5.0254236795     1.9127948125    -1.5755464057
   37      C       3.7650015956     1.5448420871    -0.6965708384
   38      O       4.3088252911     1.4751877047     0.6800573475
   39      H       5.1221183094    -1.3390369276    -0.9497527160
   40      H       3.3917678799    -0.1759560313    -2.0871526774
   41      H       3.2139392530    -2.4700483139     3.2366764917
   42      H       5.9347759375     0.2178671480     1.2624882001
   43      H       6.9199362016     1.8327908837    -0.4054140845
   44      H       6.6740950851     0.3962198333    -1.4449815618
   45      H       5.1966370641     3.0008468194    -1.5652898415
   46      H       4.9129482352     1.5827755984    -2.6205642303
   47      H       2.9244282568     2.2625226244    -0.7444558296
   48      H       1.7859003717    -2.7193366955     2.1659263083
   49      H       1.8111698849    -1.3260663025     3.3200152196
   50      H      -0.2480876691    -1.3241590538    -1.7826248716
   51      H      -0.9003055024    -0.1183667750    -2.9793460410
   52      H      -1.5008624362    -1.8139411667    -3.0147847938
   53      H      -0.2255671081     1.9626017491     2.3333167589
   54      H      -0.3919777483     2.5718997082     0.6303573983
   55      H       0.1140325856    -0.3578476348     1.5417685799
   56      H      -0.6723471831     0.0087074880    -0.0374592926
 ----------------------------------------------------------------

    9   -1510.2887664679      5.11E-09 Convergence criterion met
 Total energy in the final basis set = -1510.28876647
 Final energy is   -1510.28876646788
 **  OPTIMIZATION CONVERGED  **

                    Orbital Energies (a.u.)
 --------------------------------------------------------------

 Alpha MOs
 -- Occupied --
-18.939 -18.937 -18.936 -18.926 -18.889 -18.887 -18.879 -18.878
-18.871 -18.869 -10.104 -10.103 -10.102 -10.093 -10.073 -10.066
-10.064 -10.063 -10.060 -10.059 -10.058 -10.041 -10.040 -10.040
-10.039 -10.035 -10.022 -10.020 -10.020 -10.019  -1.019  -1.016
 -1.008  -1.002  -0.971  -0.969  -0.941  -0.939  -0.935  -0.928
 -0.765  -0.762  -0.728  -0.723  -0.714  -0.707  -0.693  -0.662
 -0.649  -0.615  -0.598  -0.580  -0.548  -0.545  -0.538  -0.537
 -0.518  -0.511  -0.489  -0.477  -0.469  -0.465  -0.448  -0.439
 -0.434  -0.432  -0.426  -0.415  -0.414  -0.409  -0.402  -0.398
 -0.392  -0.379  -0.372  -0.368  -0.364  -0.358  -0.350  -0.347
 -0.344  -0.340  -0.334  -0.332  -0.330  -0.326  -0.319  -0.309
 -0.308  -0.306  -0.304  -0.301  -0.298  -0.291  -0.289  -0.277
 -0.271  -0.257  -0.254  -0.251  -0.241  -0.235  -0.233  -0.180
 -0.179  -0.176  -0.169  -0.159  -0.158  -0.150  -0.146  -0.144
 -0.143

          Ground-State Mulliken Net Atomic Charges

     Atom                 Charge (a.u.)
  ----------------------------------------
      1 O                    -0.208979
      2 C                     0.210256
      3 C                    -0.079552
      4 C                    -0.078038
      5 C                     0.220908
      6 O                    -0.166934
      7 C                    -0.054592
      8 C                    -0.048541
      9 O                    -0.171116
     10 C                     0.212439
     11 C                    -0.078341
     12 C                    -0.080139
     13 C                     0.209023
     14 O                    -0.210939
     15 O                    -0.166767
     16 O                    -0.175114
     17 O                    -0.213744
     18 C                    -0.144028
     19 C                     0.023455
     20 C                    -0.144669
     21 C                    -0.143627
     22 C                     0.025919
     23 O                    -0.188077
     24 H                     0.085502
     25 H                     0.085065
     26 H                     0.091800
     27 H                     0.077679
     28 H                     0.073006
     29 H                     0.077860
     30 H                     0.073995
     31 H                     0.083896
     32 O                    -0.227293
     33 C                    -0.129209
     34 C                     0.026038
     35 C                    -0.143604
     36 C                    -0.144483
     37 C                     0.025282
     38 O                    -0.186134
     39 H                     0.086342
     40 H                     0.084680
     41 H                     0.093326
     42 H                     0.082827
     43 H                     0.078294
     44 H                     0.074391
     45 H                     0.078277
     46 H                     0.073685
     47 H                     0.091457
     48 H                     0.091597
     49 H                     0.090620
     50 H                     0.108076
     51 H                     0.085854
     52 H                     0.080528
     53 H                     0.091159
     54 H                     0.099009
     55 H                     0.085494
     56 H                     0.106183
  ----------------------------------------
  Sum of atomic charges =     0.000000

                    Cartesian Multipole Moments
 -----------------------------------------------------------------
    Charge (ESU x 10^10)
                 0.0000
    Dipole Moment (Debye)
         X      -0.2201      Y       0.9194      Z       1.0583
       Tot       1.4191
    Quadrupole Moments (Debye-Ang)
        XX    -140.2714     XY       4.5024     YY    -166.5569
        XZ     -10.8172     YZ       1.8849     ZZ    -160.6731

 Total job time:  103.58s(wall), 4935.86s(cpu)
        *  Thank you very much for using Q-Chem.  Have a nice day.  *
