 Q-Chem 5.0, Q-Chem, Inc., Pleasanton, CA (2017)
 Q-Chem 5.0.1 for Intel X86 EM64T Linux

User input:
--------------------------------------------------------------
$molecule
0  1
O 4.1246007929 -2.9362865706 -0.3059883035
C 4.1422005382 -1.7601039079 0.1168617068
C 4.358149832 -0.4596028718 -0.7352263168
C 3.087649126 0.4875301322 -0.8071568449
C 1.8646818847 -0.0759310464 -0.0018557314
O 1.051136549 0.9965868589 0.4547749758
C -0.0333311574 0.4843981466 1.3321851275
C -0.8844972738 1.7265232773 1.7933239185
O -2.3204809422 1.4604570834 1.5410853883
C -2.5679933853 1.4921998816 0.1304051431
C -4.0807217627 1.2038517445 -0.1585110903
C -4.2748002547 -0.0444482481 -1.1240046563
C -2.9763880985 -0.7782361151 -1.6114981259
O -2.7203264002 -1.0625100105 -2.8032995068
O 4.0418510394 -1.3961519435 1.5002710775
O -2.1571269903 -1.1790286181 -0.4993677488
O -1.6952149976 1.7584385918 -0.724751383
C -1.0938338593 -2.1101185352 -0.9685038568
C -4.9048806758 0.7385019057 1.1113090113
C -6.4441423204 0.833975197 0.7711925621
C -6.629552303 -0.419844152 -0.1616026459
C -5.1582174832 -0.9929241957 -0.194913874
O -4.6479138962 -0.7197921571 1.1665503465
H -4.5120747524 2.1120263216 -0.6188631167
H -4.8283040196 0.245454388 -2.0343720447
H -4.5926572248 1.2225114511 2.0557544466
H -7.0469309789 0.7468388997 1.689111891
H -6.7013874092 1.7802609884 0.2691249934
H -7.3176005159 -1.1564715943 0.2830303677
H -6.9963074783 -0.1553093103 -1.1662809844
H -5.0769986283 -2.0718347504 -0.4305537201
O 1.5944919561 -1.2876627086 0.1870808059
C 3.7469685978 -2.5990178328 2.3097214908
C 5.4173745868 0.5307282526 -0.0804005099
C 5.875468602 1.5657477694 -1.1828741875
C 4.6113637592 2.4995147687 -1.2677995559
C 3.6663049372 1.8303361213 -0.194403471
O 4.6035129557 1.3499804705 0.846420549
H 4.6691543203 -0.7784290753 -1.7455566686
H 2.7596204955 0.6327433503 -1.8538388443
H 4.5219534857 -3.382054941 2.1814937301
H 6.2383739197 0.028330332 0.4665208434
H 6.7644197064 2.1201270473 -0.8423600598
H 6.1104100362 1.076566386 -2.1415793696
H 4.8523966401 3.5343610532 -0.9772481132
H 4.1560020107 2.5107543321 -2.2709598808
H 2.8931083352 2.4891933322 0.2449090121
H 2.7612335965 -3.0302921161 2.0388316584
H 3.7284976787 -2.2632570163 3.3628541312
H -0.1317606397 -1.8383849315 -0.4794822699
H -1.0075547978 -2.0413932713 -2.0705370305
H -1.3732333595 -3.1444700294 -0.6855497337
H -0.7993193863 1.8975509471 2.8838856263
H -0.5363916639 2.6270890191 1.2422542684
H 0.4026810514 -0.0544516336 2.2002001867
H -0.7033076249 -0.2145772723 0.7829057103
$end

$rem
JOBTYPE                   OPT
METHOD                    B3LYP
DFT_D                     d3_op
BASIS                     STO-3G
GEOM_OPT_MAX_CYCLES       100
GEOM_OPT_TOL_GRADIENT     300
GEOM_OPT_TOL_DISPLACEMENT 1200
GEOM_OPT_TOL_ENERGY       100
SYMMETRY                  False
THRESH                    12
SCF_CONVERGENCE           8
MAX_SUB_FILE_NUM          128
MEM_STATIC                400
MEM_TOTAL                 4000
$end
--------------------------------------------------------------

   16   -1510.2861654605      5.60E-09 Convergence criterion met
 Total energy in the final basis set = -1510.28616546
   15   -1510.1909931730      6.10E-09 Convergence criterion met
 Total energy in the final basis set = -1510.19099317
   15   -1510.2860210846      5.89E-09 Convergence criterion met
 Total energy in the final basis set = -1510.28602108
   14   -1510.2850747519      5.01E-09 Convergence criterion met
 Total energy in the final basis set = -1510.28507475
   15   -1510.2841508462      2.68E-09 Convergence criterion met
 Total energy in the final basis set = -1510.28415085
   13   -1510.2858840495      4.20E-09 Convergence criterion met
 Total energy in the final basis set = -1510.28588405
   14   -1510.2849993398      4.68E-09 Convergence criterion met
 Total energy in the final basis set = -1510.28499934
   13   -1510.2863110849      8.66E-09 Convergence criterion met
   11   -1510.2924419907      5.63E-09 Convergence criterion met
 Total energy in the final basis set = -1510.29244199
   11   -1510.2924592729      8.37E-09 Convergence criterion met
 Total energy in the final basis set = -1510.29245927
   11   -1510.2924531510      2.56E-09 Convergence criterion met
 Total energy in the final basis set = -1510.29245315
    9   -1510.2924555961      8.85E-09 Convergence criterion met
 Total energy in the final basis set = -1510.29245560
    9   -1510.2924668305      8.10E-09 Convergence criterion met
 Total energy in the final basis set = -1510.29246683
    9   -1510.2924687425      3.91E-09 Convergence criterion met
 Total energy in the final basis set = -1510.29246874

             Standard Nuclear Orientation (Angstroms)
    I     Atom           X                Y                Z
 ----------------------------------------------------------------
    1      O       2.7358523281    -3.0451988973    -0.0776204936
    2      C       3.1226489990    -1.8804961578     0.1613597557
    3      C       3.1165625461    -0.6669218931    -0.8304707803
    4      C       2.1872259560     0.5329038809    -0.3697907907
    5      C       1.3946780363     0.2406155425     0.9480734874
    6      O       1.2407157773     1.4402306723     1.7053296497
    7      C       0.2214941973     1.2576732251     2.7651665293
    8      C      -0.9582592320     2.2794363926     2.5266603563
    9      O      -2.1991046541     1.7252775268     1.9293205629
   10      C      -2.0038878304     1.2842705919     0.5835830459
   11      C      -3.4034781252     1.0233742441    -0.0723224578
   12      C      -3.3314256499     0.1475499403    -1.3917522750
   13      C      -1.8984328018    -0.4137312658    -1.7273118100
   14      O      -1.1427200684    -0.0373446099    -2.6518610852
   15      O       3.6916617908    -1.4584110497     1.4067338755
   16      O      -1.6436503582    -1.5124431504    -0.8548610936
   17      O      -0.8909681204     1.1782712347     0.0229536259
   18      C      -0.2998400277    -2.0908072521    -1.0976536439
   19      C      -4.3911669661     0.1607005717     0.8258110782
   20      C      -5.8588836142     0.3894555083     0.2888427241
   21      C      -5.8176746019    -0.4327853244    -1.0524899542
   22      C      -4.3473101539    -1.0145736427    -1.0135680896
   23      O      -4.0966799470    -1.2332567111     0.4301042101
   24      H      -3.8458653794     2.0150720384    -0.2847280317
   25      H      -3.6757292519     0.7266404248    -2.2664021397
   26      H      -4.2515773968     0.3010364239     1.9151304026
   27      H      -6.5935285397    -0.0275105929     0.9960471242
   28      H      -6.0856711773     1.4559757457     0.1310544531
   29      H      -6.5565158575    -1.2498947355    -1.0494838568
   30      H      -5.9891823239     0.1956882320    -1.9409848635
   31      H      -4.1971041772    -1.9551753004    -1.5774907855
   32      O       0.9199176762    -0.8677829990     1.2982894221
   33      C       3.6170311222    -2.5631425151     2.3883063383
   34      C       4.5236324726     0.0704923053    -0.8980307596
   35      C       4.5349173375     0.9981899590    -2.1774245337
   36      C       3.6193318102     2.1864018326    -1.6998488496
   37      C       3.2405208520     1.7106128923    -0.2422200141
   38      O       4.4665928008     1.0277519589     0.2294733818
   39      H       2.8077437635    -1.0504598716    -1.8184652659
   40      H       1.4245402004     0.7579747509    -1.1402023721
   41      H       4.1290999825    -3.4755627002     2.0206624031
   42      H       5.3984013880    -0.5999437592    -0.7926294273
   43      H       5.5590273073     1.3391046522    -2.3976490865
   44      H       4.1343177536     0.4841164962    -3.0657471924
   45      H       4.1769572662     3.1357023759    -1.6618001085
   46      H       2.7296965419     2.3224474335    -2.3354186716
   47      H       2.9389332017     2.5085132564     0.4629880743
   48      H       2.5629151689    -2.8194149279     2.6214214728
   49      H       4.1202252108    -2.1960911836     3.3015333893
   50      H       0.3350063248    -1.8627446288    -0.2119043151
   51      H       0.1391583980    -1.6482553398    -2.0134666602
   52      H      -0.4106121744    -3.1850813340    -1.2171957098
   53      H      -1.2917879245     2.6891856921     3.5013082026
   54      H      -0.5687084526     3.1139681055     1.9019766431
   55      H       0.7013932688     1.4747628039     3.7423457380
   56      H      -0.1327545754     0.2028758401     2.7539136133
 ----------------------------------------------------------------

    8   -1510.2924701371      6.97E-09 Convergence criterion met
 Total energy in the final basis set = -1510.29247014
 Final energy is   -1510.29247013713
 **  OPTIMIZATION CONVERGED  **

                    Orbital Energies (a.u.)
 --------------------------------------------------------------

 Alpha MOs
 -- Occupied --
-18.946 -18.940 -18.924 -18.912 -18.889 -18.886 -18.883 -18.882
-18.864 -18.852 -10.112 -10.109 -10.090 -10.084 -10.084 -10.076
-10.059 -10.056 -10.056 -10.055 -10.054 -10.040 -10.034 -10.031
-10.031 -10.025 -10.019 -10.018 -10.016 -10.015  -1.026  -1.015
 -1.000  -0.992  -0.967  -0.966  -0.950  -0.942  -0.926  -0.916
 -0.762  -0.759  -0.728  -0.719  -0.714  -0.704  -0.695  -0.652
 -0.640  -0.621  -0.594  -0.580  -0.544  -0.542  -0.535  -0.533
 -0.513  -0.510  -0.486  -0.472  -0.466  -0.459  -0.448  -0.436
 -0.431  -0.429  -0.426  -0.409  -0.406  -0.404  -0.402  -0.400
 -0.390  -0.387  -0.378  -0.363  -0.359  -0.355  -0.346  -0.342
 -0.337  -0.335  -0.331  -0.327  -0.326  -0.320  -0.317  -0.314
 -0.306  -0.304  -0.300  -0.296  -0.293  -0.286  -0.282  -0.272
 -0.271  -0.262  -0.253  -0.243  -0.232  -0.230  -0.228  -0.194
 -0.178  -0.168  -0.166  -0.161  -0.148  -0.142  -0.141  -0.139
 -0.138

          Ground-State Mulliken Net Atomic Charges

     Atom                 Charge (a.u.)
  ----------------------------------------
      1 O                    -0.215106
      2 C                     0.209641
      3 C                    -0.081029
      4 C                    -0.078123
      5 C                     0.233918
      6 O                    -0.168677
      7 C                    -0.055014
      8 C                    -0.049464
      9 O                    -0.171182
     10 C                     0.217304
     11 C                    -0.077971
     12 C                    -0.080448
     13 C                     0.210945
     14 O                    -0.227224
     15 O                    -0.169855
     16 O                    -0.172746
     17 O                    -0.212343
     18 C                    -0.148314
     19 C                     0.024735
     20 C                    -0.143515
     21 C                    -0.144868
     22 C                     0.027511
     23 O                    -0.184630
     24 H                     0.084737
     25 H                     0.081723
     26 H                     0.088270
     27 H                     0.077747
     28 H                     0.072168
     29 H                     0.077559
     30 H                     0.072874
     31 H                     0.085938
     32 O                    -0.217205
     33 C                    -0.128594
     34 C                     0.026239
     35 C                    -0.144072
     36 C                    -0.143844
     37 C                     0.024097
     38 O                    -0.187934
     39 H                     0.085587
     40 H                     0.101186
     41 H                     0.087911
     42 H                     0.082653
     43 H                     0.076796
     44 H                     0.074791
     45 H                     0.076452
     46 H                     0.076199
     47 H                     0.090375
     48 H                     0.090721
     49 H                     0.088307
     50 H                     0.105308
     51 H                     0.087369
     52 H                     0.080890
     53 H                     0.092444
     54 H                     0.092882
     55 H                     0.088652
     56 H                     0.108231
  ----------------------------------------
  Sum of atomic charges =    -0.000000

                    Cartesian Multipole Moments
 -----------------------------------------------------------------
    Charge (ESU x 10^10)
                -0.0000
    Dipole Moment (Debye)
         X      -1.4401      Y       2.7613      Z       0.9114
       Tot       3.2449
    Quadrupole Moments (Debye-Ang)
        XX    -150.3461     XY      -6.4245     YY    -159.9584
        XZ      -0.5944     YZ       2.1556     ZZ    -153.2352

 Total job time:  135.05s(wall), 6436.97s(cpu)
        *  Thank you very much for using Q-Chem.  Have a nice day.  *
