 Q-Chem 5.0, Q-Chem, Inc., Pleasanton, CA (2017)
 Q-Chem 5.0.1 for Intel X86 EM64T Linux

User input:
--------------------------------------------------------------
$molecule
0  1
O -3.94934 -3.66094 2.70899
C -3.26408 -4.56952 2.26188
C -3.36658 -6.02376 2.66595
C -3.86105 -7.01586 1.60055
C -4.02833 -6.47239 0.19885
O -3.84507 -7.47354 -0.71193
C -3.86035 -7.01192 -2.06689
C -3.65047 -8.18148 -3.02304
O -4.66948 -8.17509 -4.03519
C -5.91225 -8.51703 -3.6136
C -6.93909 -8.48318 -4.72045
C -8.13995 -7.56169 -4.46142
C -7.97392 -6.56051 -3.33591
O -8.77147 -6.37609 -2.42792
O -2.36022 -4.28081 1.28681
O -6.91169 -5.71557 -3.42633
O -6.1768 -8.89957 -2.47987
C -6.72616 -4.61628 -2.6126
C -6.47353 -7.94616 -6.09663
C -7.38488 -8.48851 -7.19886
C -8.65232 -7.7025 -6.93427
C -8.17932 -6.79427 -5.79563
O -6.8153 -6.58286 -6.075
H -7.2655 -9.53967 -4.8497
H -9.07947 -8.12488 -4.26543
H -5.41782 -8.18622 -6.34584
H -6.95947 -8.15375 -8.17229
H -7.50505 -9.59312 -7.21431
H -8.887 -7.0992 -7.83938
H -9.5365 -8.30883 -6.64079
H -8.81236 -5.88125 -5.73527
O -4.62978 -5.43563 -0.05243
C -2.15138 -3.02122 0.76604
C -2.00139 -6.61835 3.04184
C -2.19312 -7.81746 3.96652
C -2.74888 -8.83287 2.99302
C -2.6876 -8.03325 1.68595
O -1.55669 -7.2127 1.84884
H -4.04592 -6.04317 3.5485
H -4.82974 -7.48967 1.87456
H -1.82022 -2.32594 1.56672
H -1.31581 -5.87635 3.50739
H -1.18257 -8.1532 4.2924
H -2.82314 -7.62186 4.86083
H -2.04378 -9.69304 2.94781
H -3.77505 -9.19694 3.21578
H -2.64279 -8.75162 0.84048
H -3.08531 -2.64106 0.29947
H -1.36117 -3.07563 -0.01048
H -5.77227 -4.11863 -2.88273
H -6.68409 -4.92856 -1.54871
H -7.55942 -3.89511 -2.75158
H -2.64933 -8.08761 -3.49486
H -3.65656 -9.16016 -2.49032
H -3.08661 -6.23125 -2.24702
H -4.84537 -6.55023 -2.2616
$end

$opt
CONSTRAINT
tors           1           2           3           4    +113.409
tors           3           4           5           6    +151.589
tors           4           5           6           7    -174.348
tors           5           6           7           8    -180.000
tors           6           7           8           9    +129.266
tors           7           8           9          10     -71.156
tors           8           9          10          11    +179.642
tors           9          10          11          12    -122.890
tors          11          12          13          14    -130.187
ENDCONSTRAINT
$end

$rem
JOBTYPE                   OPT
METHOD                    B3LYP
DFT_D                     d3_op
BASIS                     STO-3G
GEOM_OPT_MAX_CYCLES       100
GEOM_OPT_TOL_GRADIENT     300
GEOM_OPT_TOL_DISPLACEMENT 1200
GEOM_OPT_TOL_ENERGY       100
SYMMETRY                  False
THRESH                    12
SCF_CONVERGENCE           8
MAX_SUB_FILE_NUM          128
MEM_STATIC                400
MEM_TOTAL                 4000
$end
--------------------------------------------------------------

   15   -1510.1529642651      7.20E-09 Convergence criterion met
 Total energy in the final basis set = -1510.15296427
   14   -1510.2223103920      5.84E-09 Convergence criterion met
 Total energy in the final basis set = -1510.22231039
   14   -1510.2595080641      6.63E-09 Convergence criterion met
 Total energy in the final basis set = -1510.25950806
   14   -1510.2753741862      4.38E-09 Convergence criterion met
 Total energy in the final basis set = -1510.27537419
   14   -1510.2782002261      4.61E-09 Convergence criterion met
 Total energy in the final basis set = -1510.27820023
    2   -1510.2782002261      2.17E-09 Convergence criterion met
 Total energy in the final basis set = -1510.27820023
   14   -1510.2812676561      4.94E-09 Convergence criterion met
 Total energy in the final basis set = -1510.28126766
   12   -1510.2825290264      9.40E-09 Convergence criterion met
   11   -1510.2861400612      6.48E-09 Convergence criterion met
 Total energy in the final basis set = -1510.28614006
   11   -1510.2861616531      4.96E-09 Convergence criterion met
 Total energy in the final basis set = -1510.28616165
   10   -1510.2861654363      3.95E-09 Convergence criterion met
 Total energy in the final basis set = -1510.28616544
   11   -1510.2861707182      1.60E-09 Convergence criterion met
 Total energy in the final basis set = -1510.28617072
    9   -1510.2861727784      5.91E-09 Convergence criterion met
 Total energy in the final basis set = -1510.28617278
    9   -1510.2861740735      5.86E-09 Convergence criterion met
 Total energy in the final basis set = -1510.28617407

             Standard Nuclear Orientation (Angstroms)
    I     Atom           X                Y                Z
 ----------------------------------------------------------------
    1      O       4.1246007929    -2.9362865706    -0.3059883035
    2      C       4.1422005382    -1.7601039079     0.1168617068
    3      C       4.3581498320    -0.4596028718    -0.7352263168
    4      C       3.0876491260     0.4875301322    -0.8071568449
    5      C       1.8646818847    -0.0759310464    -0.0018557314
    6      O       1.0511365490     0.9965868589     0.4547749758
    7      C      -0.0333311574     0.4843981466     1.3321851275
    8      C      -0.8844972738     1.7265232773     1.7933239185
    9      O      -2.3204809422     1.4604570834     1.5410853883
   10      C      -2.5679933853     1.4921998816     0.1304051431
   11      C      -4.0807217627     1.2038517445    -0.1585110903
   12      C      -4.2748002547    -0.0444482481    -1.1240046563
   13      C      -2.9763880985    -0.7782361151    -1.6114981259
   14      O      -2.7203264002    -1.0625100105    -2.8032995068
   15      O       4.0418510394    -1.3961519435     1.5002710775
   16      O      -2.1571269903    -1.1790286181    -0.4993677488
   17      O      -1.6952149976     1.7584385918    -0.7247513830
   18      C      -1.0938338593    -2.1101185352    -0.9685038568
   19      C      -4.9048806758     0.7385019057     1.1113090113
   20      C      -6.4441423204     0.8339751970     0.7711925621
   21      C      -6.6295523030    -0.4198441520    -0.1616026459
   22      C      -5.1582174832    -0.9929241957    -0.1949138740
   23      O      -4.6479138962    -0.7197921571     1.1665503465
   24      H      -4.5120747524     2.1120263216    -0.6188631167
   25      H      -4.8283040196     0.2454543880    -2.0343720447
   26      H      -4.5926572248     1.2225114511     2.0557544466
   27      H      -7.0469309789     0.7468388997     1.6891118910
   28      H      -6.7013874092     1.7802609884     0.2691249934
   29      H      -7.3176005159    -1.1564715943     0.2830303677
   30      H      -6.9963074783    -0.1553093103    -1.1662809844
   31      H      -5.0769986283    -2.0718347504    -0.4305537201
   32      O       1.5944919561    -1.2876627086     0.1870808059
   33      C       3.7469685978    -2.5990178328     2.3097214908
   34      C       5.4173745868     0.5307282526    -0.0804005099
   35      C       5.8754686020     1.5657477694    -1.1828741875
   36      C       4.6113637592     2.4995147687    -1.2677995559
   37      C       3.6663049372     1.8303361213    -0.1944034710
   38      O       4.6035129557     1.3499804705     0.8464205490
   39      H       4.6691543203    -0.7784290753    -1.7455566686
   40      H       2.7596204955     0.6327433503    -1.8538388443
   41      H       4.5219534857    -3.3820549410     2.1814937301
   42      H       6.2383739197     0.0283303320     0.4665208434
   43      H       6.7644197064     2.1201270473    -0.8423600598
   44      H       6.1104100362     1.0765663860    -2.1415793696
   45      H       4.8523966401     3.5343610532    -0.9772481132
   46      H       4.1560020107     2.5107543321    -2.2709598808
   47      H       2.8931083352     2.4891933322     0.2449090121
   48      H       2.7612335965    -3.0302921161     2.0388316584
   49      H       3.7284976787    -2.2632570163     3.3628541312
   50      H      -0.1317606397    -1.8383849315    -0.4794822699
   51      H      -1.0075547978    -2.0413932713    -2.0705370305
   52      H      -1.3732333595    -3.1444700294    -0.6855497337
   53      H      -0.7993193863     1.8975509471     2.8838856263
   54      H      -0.5363916639     2.6270890191     1.2422542684
   55      H       0.4026810514    -0.0544516336     2.2002001867
   56      H      -0.7033076249    -0.2145772723     0.7829057103
 ----------------------------------------------------------------

    9   -1510.2861744297      3.00E-09 Convergence criterion met
 Total energy in the final basis set = -1510.28617443
 Final energy is   -1510.28617442967
 **  OPTIMIZATION CONVERGED  **

                    Orbital Energies (a.u.)
 --------------------------------------------------------------

 Alpha MOs
 -- Occupied --
-18.946 -18.938 -18.928 -18.922 -18.889 -18.886 -18.884 -18.875
-18.873 -18.863 -10.110 -10.102 -10.097 -10.090 -10.078 -10.071
-10.061 -10.059 -10.059 -10.058 -10.055 -10.041 -10.040 -10.038
-10.038 -10.033 -10.022 -10.020 -10.019 -10.018  -1.023  -1.015
 -1.004  -0.999  -0.971  -0.969  -0.945  -0.939  -0.931  -0.925
 -0.764  -0.762  -0.729  -0.722  -0.715  -0.706  -0.695  -0.653
 -0.649  -0.618  -0.598  -0.582  -0.546  -0.545  -0.538  -0.536
 -0.518  -0.512  -0.489  -0.473  -0.468  -0.462  -0.446  -0.442
 -0.434  -0.432  -0.429  -0.413  -0.409  -0.405  -0.403  -0.400
 -0.391  -0.383  -0.370  -0.367  -0.363  -0.358  -0.348  -0.344
 -0.343  -0.340  -0.336  -0.331  -0.329  -0.323  -0.321  -0.312
 -0.308  -0.305  -0.304  -0.300  -0.299  -0.290  -0.282  -0.276
 -0.272  -0.261  -0.256  -0.244  -0.242  -0.235  -0.233  -0.184
 -0.180  -0.171  -0.166  -0.160  -0.158  -0.150  -0.144  -0.143
 -0.141

          Ground-State Mulliken Net Atomic Charges

     Atom                 Charge (a.u.)
  ----------------------------------------
      1 O                    -0.215315
      2 C                     0.211757
      3 C                    -0.080910
      4 C                    -0.077304
      5 C                     0.221422
      6 O                    -0.165065
      7 C                    -0.052918
      8 C                    -0.047714
      9 O                    -0.168646
     10 C                     0.211502
     11 C                    -0.078701
     12 C                    -0.078892
     13 C                     0.209153
     14 O                    -0.211792
     15 O                    -0.171873
     16 O                    -0.175648
     17 O                    -0.215495
     18 C                    -0.150387
     19 C                     0.024036
     20 C                    -0.144501
     21 C                    -0.143639
     22 C                     0.025972
     23 O                    -0.186652
     24 H                     0.085590
     25 H                     0.085949
     26 H                     0.091867
     27 H                     0.078002
     28 H                     0.073100
     29 H                     0.078273
     30 H                     0.074328
     31 H                     0.083152
     32 O                    -0.216570
     33 C                    -0.128622
     34 C                     0.026387
     35 C                    -0.144116
     36 C                    -0.144047
     37 C                     0.023863
     38 O                    -0.187989
     39 H                     0.084208
     40 H                     0.088620
     41 H                     0.087390
     42 H                     0.084156
     43 H                     0.077517
     44 H                     0.073978
     45 H                     0.077775
     46 H                     0.074048
     47 H                     0.090555
     48 H                     0.090925
     49 H                     0.087324
     50 H                     0.102322
     51 H                     0.097025
     52 H                     0.079873
     53 H                     0.092210
     54 H                     0.098200
     55 H                     0.088120
     56 H                     0.108194
  ----------------------------------------
  Sum of atomic charges =     0.000000

                    Cartesian Multipole Moments
 -----------------------------------------------------------------
    Charge (ESU x 10^10)
                -0.0000
    Dipole Moment (Debye)
         X      -1.1425      Y       2.1474      Z       0.7274
       Tot       2.5388
    Quadrupole Moments (Debye-Ang)
        XX    -142.3471     XY       0.3806     YY    -161.1882
        XZ      -3.0750     YZ      -3.1932     ZZ    -161.8773

 Total job time:  94.00s(wall), 4475.91s(cpu)
        *  Thank you very much for using Q-Chem.  Have a nice day.  *
