 Q-Chem 5.0, Q-Chem, Inc., Pleasanton, CA (2017)
 Q-Chem 5.0.1 for Intel X86 EM64T Linux

User input:
--------------------------------------------------------------
$molecule
0  1
O -3.94934 -3.66094 2.70899
C -3.26408 -4.56952 2.26188
C -3.36658 -6.02376 2.66595
C -3.58431 -7.0513 1.54319
C -3.49763 -6.53008 0.12583
O -3.27554 -7.56561 -0.73659
C -3.0532 -7.13803 -2.08455
C -2.79494 -8.34346 -2.98253
O -3.64006 -8.27992 -4.14211
C -4.95627 -8.51774 -3.91811
C -5.79218 -8.42813 -5.17265
C -6.94283 -7.4129 -5.11267
C -6.87638 -6.4048 -3.98306
O -7.7888 -6.14198 -3.21301
O -2.2208 -4.24192 1.44966
O -5.74986 -5.6453 -3.91214
O -5.4236 -8.85543 -2.83681
C -5.60045 -4.55623 -3.07714
C -5.07718 -7.95585 -6.46292
C -5.84494 -8.44963 -7.69021
C -7.07316 -7.56502 -7.63395
C -6.71387 -6.67206 -6.44279
O -5.31069 -6.57039 -6.50632
H -6.17621 -9.45909 -5.34314
H -7.94256 -7.89897 -5.06187
H -4.0175 -8.28019 -6.54133
H -5.24816 -8.16723 -8.58727
H -6.04668 -9.5421 -7.71595
H -7.11685 -6.96457 -8.56979
H -8.03655 -8.09691 -7.47728
H -7.27542 -5.71269 -6.49002
O -3.7806 -5.39532 -0.23765
C -1.92799 -2.9603 1.03236
C -2.05324 -6.51452 3.2941
C -2.31607 -7.73709 4.17034
C -2.57839 -8.78355 3.11178
C -2.35443 -7.9572 1.84053
O -1.34653 -7.04876 2.20652
H -4.18563 -6.0792 3.41824
H -4.52131 -7.6446 1.63051
H -1.71378 -2.31176 1.90854
H -1.5303 -5.72636 3.87987
H -1.36658 -7.99109 4.6937
H -3.127 -7.60277 4.91827
H -1.79138 -9.56657 3.19385
H -3.58411 -9.25541 3.14385
H -2.09299 -8.65019 1.01261
H -2.7798 -2.54281 0.45404
H -1.03164 -2.98682 0.37951
H -4.58382 -4.13238 -3.20905
H -5.72963 -4.86274 -2.01779
H -6.34938 -3.77616 -3.33124
H -1.72771 -8.34407 -3.29039
H -2.96712 -9.30498 -2.4463
H -2.20252 -6.42292 -2.1612
H -3.962 -6.61079 -2.42668
$end

$opt
CONSTRAINT
tors           1           2           3           4    +125.364
tors           3           4           5           6    +160.450
tors           4           5           6           7    -174.348
tors           5           6           7           8    +179.243
tors           6           7           8           9    +129.773
tors           7           8           9          10     -71.487
tors           8           9          10          11    +179.642
tors           9          10          11          12    -122.890
tors          11          12          13          14    -130.187
ENDCONSTRAINT
$end

$rem
JOBTYPE                   OPT
METHOD                    B3LYP
DFT_D                     d3_op
BASIS                     STO-3G
GEOM_OPT_MAX_CYCLES       100
GEOM_OPT_TOL_GRADIENT     300
GEOM_OPT_TOL_DISPLACEMENT 1200
GEOM_OPT_TOL_ENERGY       100
SYMMETRY                  False
THRESH                    12
SCF_CONVERGENCE           8
MAX_SUB_FILE_NUM          128
MEM_STATIC                400
MEM_TOTAL                 4000
$end
--------------------------------------------------------------

   15   -1510.1553527702      6.74E-09 Convergence criterion met
 Total energy in the final basis set = -1510.15535277
   14   -1510.2243781001      5.28E-09 Convergence criterion met
 Total energy in the final basis set = -1510.22437810
   14   -1510.2610129781      5.87E-09 Convergence criterion met
 Total energy in the final basis set = -1510.26101298
   14   -1510.2761829977      5.20E-09 Convergence criterion met
 Total energy in the final basis set = -1510.27618300
   14   -1510.2799399600      4.66E-09 Convergence criterion met
 Total energy in the final basis set = -1510.27993996
   14   -1510.2797925043      4.94E-09 Convergence criterion met
 Total energy in the final basis set = -1510.27979250
   13   -1510.2817635288      6.45E-09 Convergence criterion met
 Total energy in the final basis set = -1510.28176353
   12   -1510.2822563021      8.00E-09 Convergence criterion met
   11   -1510.2855834623      4.77E-09 Convergence criterion met
 Total energy in the final basis set = -1510.28558346
   11   -1510.2855966476      6.04E-09 Convergence criterion met
 Total energy in the final basis set = -1510.28559665
   11   -1510.2856089429      2.28E-09 Convergence criterion met
 Total energy in the final basis set = -1510.28560894
    9   -1510.2856143387      6.11E-09 Convergence criterion met
 Total energy in the final basis set = -1510.28561434
    9   -1510.2856186271      8.71E-09 Convergence criterion met
 Total energy in the final basis set = -1510.28561863
    9   -1510.2856201717      3.08E-09 Convergence criterion met
 Total energy in the final basis set = -1510.28562017

             Standard Nuclear Orientation (Angstroms)
    I     Atom           X                Y                Z
 ----------------------------------------------------------------
    1      O       4.1912642591    -2.9614331533    -0.2067316011
    2      C       4.1218118472    -1.7661193513     0.1525268246
    3      C       4.3020754404    -0.5015967067    -0.7619614654
    4      C       3.0934883360     0.5197709556    -0.7082859595
    5      C       1.8614887844    -0.0321384996     0.0861871936
    6      O       1.0261881964     1.0484958882     0.4808657201
    7      C      -0.0741048848     0.5572794852     1.3509963853
    8      C      -0.9392834606     1.8078420935     1.7604096396
    9      O      -2.3691555035     1.5192711596     1.4972230963
   10      C      -2.5965423216     1.5101437826     0.0827401210
   11      C      -4.1014489581     1.1977625281    -0.2210460863
   12      C      -4.2664181827    -0.0781726707    -1.1552929455
   13      C      -2.9521238003    -0.8097318011    -1.6029454330
   14      O      -2.6743613264    -1.1228722649    -2.7825645310
   15      O       4.0117102978    -1.3401823930     1.5180556699
   16      O      -2.1463855880    -1.1724831549    -0.4679400512
   17      O      -1.7138902487     1.7623001886    -0.7665634789
   18      C      -1.0673191319    -2.1054168760    -0.8954848810
   19      C      -4.9403081291     0.7567705631     1.0476087698
   20      C      -6.4751842278     0.8236384738     0.6803883393
   21      C      -6.6307878289    -0.4583235268    -0.2189775247
   22      C      -5.1520310739    -1.0125396269    -0.2139125187
   23      O      -4.6664786817    -0.6960495441     1.1469836373
   24      H      -4.5355665331     2.0884778496    -0.7118163387
   25      H      -4.8092260093     0.1801176170    -2.0815728339
   26      H      -4.6500198683     1.2702904390     1.9834791875
   27      H      -7.0913216412     0.7549307233     1.5909374954
   28      H      -6.7355953017     1.7522193579     0.1478031736
   29      H      -7.3161931731    -1.1909256092     0.2362373097
   30      H      -6.9855289045    -0.2271535679    -1.2361456805
   31      H      -5.0533360559    -2.0962571044    -0.4189319671
   32      O       1.5903330550    -1.2407087941     0.2942334121
   33      C       3.7995911046    -2.5158143638     2.3901538452
   34      C       5.4759086217     0.4258512587    -0.2210124087
   35      C       5.8325413458     1.4943517368    -1.3309675312
   36      C       4.6333804656     2.5026225152    -1.1848197319
   37      C       3.7818230509     1.7946532938    -0.0594297602
   38      O       4.8124356697     1.2237340244     0.8363426511
   39      H       4.4913139544    -0.8559817798    -1.7899990240
   40      H       2.7371732689     0.7562919117    -1.7289876568
   41      H       4.6058640284    -3.2679639640     2.2706577022
   42      H       6.3404070440    -0.1259410494     0.1960051770
   43      H       6.7974572481     1.9760147270    -1.1069698610
   44      H       5.8871215471     1.0432181701    -2.3346240250
   45      H       4.9772223772     3.4911767433    -0.8405723512
   46      H       4.0651930104     2.6318772204    -2.1199146068
   47      H       3.0863953697     2.4479061133     0.5019938341
   48      H       2.8267556699    -3.0041366239     2.1744751414
   49      H       3.7989618287    -2.1322518871     3.4270389003
   50      H      -0.1173119052    -1.8152057987    -0.3935327231
   51      H      -0.9595606859    -2.0607360539    -1.9968744628
   52      H      -1.3443495702    -3.1355176831    -0.5951098319
   53      H      -0.8701218957     2.0160140733     2.8455706240
   54      H      -0.5919309812     2.6919202500     1.1828244909
   55      H       0.3456808148     0.0437434187     2.2420195495
   56      H      -0.7310706630    -0.1589239122     0.8079557736
 ----------------------------------------------------------------

    9   -1510.2856199741      4.77E-09 Convergence criterion met
 Total energy in the final basis set = -1510.28561997
 Final energy is   -1510.28561997407
 **  OPTIMIZATION CONVERGED  **

                    Orbital Energies (a.u.)
 --------------------------------------------------------------

 Alpha MOs
 -- Occupied --
-18.945 -18.939 -18.928 -18.921 -18.889 -18.887 -18.884 -18.875
-18.873 -18.861 -10.110 -10.102 -10.097 -10.089 -10.078 -10.071
-10.061 -10.059 -10.059 -10.059 -10.054 -10.041 -10.040 -10.038
-10.038 -10.033 -10.022 -10.021 -10.020 -10.019  -1.023  -1.015
 -1.005  -0.999  -0.971  -0.969  -0.945  -0.939  -0.931  -0.924
 -0.764  -0.762  -0.729  -0.722  -0.715  -0.706  -0.695  -0.652
 -0.649  -0.618  -0.598  -0.583  -0.546  -0.545  -0.538  -0.537
 -0.518  -0.512  -0.489  -0.473  -0.469  -0.461  -0.446  -0.442
 -0.434  -0.432  -0.429  -0.413  -0.409  -0.405  -0.403  -0.400
 -0.390  -0.383  -0.370  -0.367  -0.362  -0.358  -0.348  -0.344
 -0.344  -0.340  -0.335  -0.332  -0.329  -0.322  -0.321  -0.314
 -0.308  -0.305  -0.305  -0.300  -0.299  -0.290  -0.283  -0.276
 -0.272  -0.261  -0.256  -0.243  -0.242  -0.235  -0.234  -0.185
 -0.181  -0.171  -0.164  -0.160  -0.158  -0.150  -0.144  -0.143
 -0.141

          Ground-State Mulliken Net Atomic Charges

     Atom                 Charge (a.u.)
  ----------------------------------------
      1 O                    -0.217061
      2 C                     0.212368
      3 C                    -0.080300
      4 C                    -0.078067
      5 C                     0.221882
      6 O                    -0.165846
      7 C                    -0.053367
      8 C                    -0.047898
      9 O                    -0.168598
     10 C                     0.211451
     11 C                    -0.078723
     12 C                    -0.078855
     13 C                     0.209146
     14 O                    -0.211742
     15 O                    -0.171176
     16 O                    -0.175653
     17 O                    -0.215478
     18 C                    -0.150388
     19 C                     0.024067
     20 C                    -0.144508
     21 C                    -0.143657
     22 C                     0.026031
     23 O                    -0.186639
     24 H                     0.085637
     25 H                     0.085960
     26 H                     0.091776
     27 H                     0.078001
     28 H                     0.073099
     29 H                     0.078297
     30 H                     0.074348
     31 H                     0.083154
     32 O                    -0.215629
     33 C                    -0.128304
     34 C                     0.026326
     35 C                    -0.144587
     36 C                    -0.143171
     37 C                     0.024931
     38 O                    -0.186426
     39 H                     0.084838
     40 H                     0.088522
     41 H                     0.087593
     42 H                     0.083442
     43 H                     0.077812
     44 H                     0.074204
     45 H                     0.077745
     46 H                     0.074218
     47 H                     0.088861
     48 H                     0.089665
     49 H                     0.087194
     50 H                     0.102435
     51 H                     0.096884
     52 H                     0.079830
     53 H                     0.091983
     54 H                     0.098402
     55 H                     0.087736
     56 H                     0.108237
  ----------------------------------------
  Sum of atomic charges =    -0.000000

                    Cartesian Multipole Moments
 -----------------------------------------------------------------
    Charge (ESU x 10^10)
                 0.0000
    Dipole Moment (Debye)
         X      -1.2929      Y       2.2912      Z       0.6442
       Tot       2.7086
    Quadrupole Moments (Debye-Ang)
        XX    -143.5494     XY       0.9803     YY    -161.2108
        XZ      -3.1099     YZ      -2.7329     ZZ    -161.5816

 Total job time:  88.92s(wall), 4233.76s(cpu)
        *  Thank you very much for using Q-Chem.  Have a nice day.  *
