 Q-Chem 5.0, Q-Chem, Inc., Pleasanton, CA (2017)
 Q-Chem 5.0.1 for Intel X86 EM64T Linux

User input:
--------------------------------------------------------------
$molecule
0  1
O 4.1912642591 -2.9614331533 -0.2067316011
C 4.1218118472 -1.7661193513 0.1525268246
C 4.3020754404 -0.5015967067 -0.7619614654
C 3.093488336 0.5197709556 -0.7082859595
C 1.8614887844 -0.0321384996 0.0861871936
O 1.0261881964 1.0484958882 0.4808657201
C -0.0741048848 0.5572794852 1.3509963853
C -0.9392834606 1.8078420935 1.7604096396
O -2.3691555035 1.5192711596 1.4972230963
C -2.5965423216 1.5101437826 0.082740121
C -4.1014489581 1.1977625281 -0.2210460863
C -4.2664181827 -0.0781726707 -1.1552929455
C -2.9521238003 -0.8097318011 -1.602945433
O -2.6743613264 -1.1228722649 -2.782564531
O 4.0117102978 -1.340182393 1.5180556699
O -2.146385588 -1.1724831549 -0.4679400512
O -1.7138902487 1.7623001886 -0.7665634789
C -1.0673191319 -2.105416876 -0.895484881
C -4.9403081291 0.7567705631 1.0476087698
C -6.4751842278 0.8236384738 0.6803883393
C -6.6307878289 -0.4583235268 -0.2189775247
C -5.1520310739 -1.0125396269 -0.2139125187
O -4.6664786817 -0.6960495441 1.1469836373
H -4.5355665331 2.0884778496 -0.7118163387
H -4.8092260093 0.180117617 -2.0815728339
H -4.6500198683 1.270290439 1.9834791875
H -7.0913216412 0.7549307233 1.5909374954
H -6.7355953017 1.7522193579 0.1478031736
H -7.3161931731 -1.1909256092 0.2362373097
H -6.9855289045 -0.2271535679 -1.2361456805
H -5.0533360559 -2.0962571044 -0.4189319671
O 1.590333055 -1.2407087941 0.2942334121
C 3.7995911046 -2.5158143638 2.3901538452
C 5.4759086217 0.4258512587 -0.2210124087
C 5.8325413458 1.4943517368 -1.3309675312
C 4.6333804656 2.5026225152 -1.1848197319
C 3.7818230509 1.7946532938 -0.0594297602
O 4.8124356697 1.2237340244 0.8363426511
H 4.4913139544 -0.8559817798 -1.789999024
H 2.7371732689 0.7562919117 -1.7289876568
H 4.6058640284 -3.267963964 2.2706577022
H 6.340407044 -0.1259410494 0.196005177
H 6.7974572481 1.976014727 -1.106969861
H 5.8871215471 1.0432181701 -2.334624025
H 4.9772223772 3.4911767433 -0.8405723512
H 4.0651930104 2.6318772204 -2.1199146068
H 3.0863953697 2.4479061133 0.5019938341
H 2.8267556699 -3.0041366239 2.1744751414
H 3.7989618287 -2.1322518871 3.4270389003
H -0.1173119052 -1.8152057987 -0.3935327231
H -0.9595606859 -2.0607360539 -1.9968744628
H -1.3443495702 -3.1355176831 -0.5951098319
H -0.8701218957 2.0160140733 2.845570624
H -0.5919309812 2.69192025 1.1828244909
H 0.3456808148 0.0437434187 2.2420195495
H -0.731070663 -0.1589239122 0.8079557736
$end

$rem
JOBTYPE                   OPT
METHOD                    B3LYP
DFT_D                     d3_op
BASIS                     STO-3G
GEOM_OPT_MAX_CYCLES       100
GEOM_OPT_TOL_GRADIENT     300
GEOM_OPT_TOL_DISPLACEMENT 1200
GEOM_OPT_TOL_ENERGY       100
SYMMETRY                  False
THRESH                    12
SCF_CONVERGENCE           8
MAX_SUB_FILE_NUM          128
MEM_STATIC                400
MEM_TOTAL                 4000
$end
--------------------------------------------------------------

   16   -1510.2855991541      5.65E-09 Convergence criterion met
 Total energy in the final basis set = -1510.28559915
   15   -1510.2131133925      5.61E-09 Convergence criterion met
 Total energy in the final basis set = -1510.21311339
   14   -1510.2860790119      6.01E-09 Convergence criterion met
 Total energy in the final basis set = -1510.28607901
   14   -1510.2862132076      5.00E-09 Convergence criterion met
 Total energy in the final basis set = -1510.28621321
   13   -1510.2843562411      7.41E-09 Convergence criterion met
 Total energy in the final basis set = -1510.28435624
   14   -1510.2862299273      5.08E-09 Convergence criterion met
 Total energy in the final basis set = -1510.28622993
   14   -1510.2846544615      2.93E-09 Convergence criterion met
 Total energy in the final basis set = -1510.28465446
   14   -1510.2868238384      3.34E-09 Convergence criterion met
   11   -1510.2924142349      6.39E-09 Convergence criterion met
 Total energy in the final basis set = -1510.29241423
   11   -1510.2924230246      3.84E-09 Convergence criterion met
 Total energy in the final basis set = -1510.29242302
   11   -1510.2924408041      5.30E-09 Convergence criterion met
 Total energy in the final basis set = -1510.29244080
   11   -1510.2924657438      5.23E-09 Convergence criterion met
 Total energy in the final basis set = -1510.29246574
   10   -1510.2924731689      8.00E-09 Convergence criterion met
 Total energy in the final basis set = -1510.29247317
    9   -1510.2924794551      4.34E-09 Convergence criterion met
 Total energy in the final basis set = -1510.29247946

             Standard Nuclear Orientation (Angstroms)
    I     Atom           X                Y                Z
 ----------------------------------------------------------------
    1      O       2.7466490325    -3.0252070463    -0.0454662889
    2      C       3.1287205134    -1.8563455934     0.1804222683
    3      C       3.1206935085    -0.6548914361    -0.8259588943
    4      C       2.1839491840     0.5461441996    -0.3834534477
    5      C       1.3900875488     0.2668992852     0.9364711494
    6      O       1.2288785278     1.4754479898     1.6777271252
    7      C       0.2113021192     1.3007421663     2.7404395392
    8      C      -0.9752152268     2.3113834834     2.4885854498
    9      O      -2.2131210878     1.7398139907     1.9018760639
   10      C      -2.0175119300     1.2811967877     0.5620116517
   11      C      -3.4171739813     1.0010348058    -0.0858926242
   12      C      -3.3432736231     0.1094522282    -1.3944671330
   13      C      -1.9071760316    -0.4442078497    -1.7288676322
   14      O      -1.1588238197    -0.0741487129    -2.6618837987
   15      O       3.6933281078    -1.4173100949     1.4219290016
   16      O      -1.6388856430    -1.5280744418    -0.8420067841
   17      O      -0.9050882367     1.1758133289     0.0002573774
   18      C      -0.2908891683    -2.0977494051    -1.0820004990
   19      C      -4.3946213872     0.1418762392     0.8266491312
   20      C      -5.8659433101     0.3524803811     0.2919975561
   21      C      -5.8233882125    -0.4877245383    -1.0381596155
   22      C      -4.3478879494    -1.0563844497    -0.9976493947
   23      O      -4.0902626149    -1.2545469332     0.4477401703
   24      H      -3.8682153352     1.9865320603    -0.3087151546
   25      H      -3.6963698017     0.6744177042    -2.2747983845
   26      H      -4.2524374446     0.2973525610     1.9135693629
   27      H      -6.5951391392    -0.0600297406     1.0074313735
   28      H      -6.1009557071     1.4150987707     0.1204962804
   29      H      -6.5548204444    -1.3112801859    -1.0202784437
   30      H      -6.0045863965     0.1265737647    -1.9346269529
   31      H      -4.1916986641    -2.0027819295    -1.5501378241
   32      O       0.9205578989    -0.8393711851     1.3002491880
   33      C       3.6193090279    -2.5101135697     2.4168206967
   34      C       4.5246187251     0.0882964453    -0.8973873819
   35      C       4.5369308838     0.9995032525    -2.1885544388
   36      C       3.6124907011     2.1886063617    -1.7307039376
   37      C       3.2309982348     1.7306196342    -0.2680717366
   38      O       4.4585227380     1.0599458960     0.2172266886
   39      H       2.8172324942    -1.0515596179    -1.8104077726
   40      H       1.4224061099     0.7573748847    -1.1588077564
   41      H       4.1335340930    -3.4260046290     2.0610422802
   42      H       5.4020970786    -0.5765379536    -0.7797414603
   43      H       5.5602542889     1.3432773365    -2.4080176665
   44      H       4.1437322516     0.4720166906    -3.0722697038
   45      H       4.1639971600     3.1418328845    -1.7040150333
   46      H       2.7243436835     2.3098524929    -2.3712508154
   47      H       2.9230231125     2.5362927124     0.4254245285
   48      H       2.5652950593    -2.7653944828     2.6515167053
   49      H       4.1205156068    -2.1310555219     3.3262307438
   50      H       0.3433041304    -1.8559347093    -0.1995294071
   51      H       0.1427108993    -1.6603704447    -2.0028611190
   52      H      -0.3924534783    -3.1940461026    -1.1909461274
   53      H      -1.3098650477     2.7337742324     3.4574202384
   54      H      -0.5920301332     3.1387759176     1.8506142564
   55      H       0.6902689213     1.5340921133     3.7142851919
   56      H      -0.1361583559     0.2436409853     2.7434003285
 ----------------------------------------------------------------

    9   -1510.2924711423      4.44E-09 Convergence criterion met
 Total energy in the final basis set = -1510.29247114
 Final energy is   -1510.29247114230
 **  OPTIMIZATION CONVERGED  **

                    Orbital Energies (a.u.)
 --------------------------------------------------------------

 Alpha MOs
 -- Occupied --
-18.946 -18.940 -18.924 -18.912 -18.889 -18.886 -18.883 -18.882
-18.864 -18.852 -10.112 -10.109 -10.090 -10.084 -10.084 -10.076
-10.059 -10.056 -10.056 -10.055 -10.054 -10.040 -10.035 -10.031
-10.031 -10.025 -10.019 -10.018 -10.016 -10.015  -1.026  -1.015
 -1.000  -0.992  -0.967  -0.966  -0.950  -0.942  -0.926  -0.916
 -0.762  -0.759  -0.728  -0.719  -0.714  -0.704  -0.695  -0.652
 -0.640  -0.621  -0.594  -0.580  -0.544  -0.542  -0.535  -0.533
 -0.513  -0.510  -0.486  -0.472  -0.466  -0.459  -0.448  -0.436
 -0.431  -0.429  -0.426  -0.409  -0.406  -0.404  -0.402  -0.400
 -0.389  -0.387  -0.378  -0.363  -0.359  -0.355  -0.346  -0.342
 -0.337  -0.335  -0.331  -0.327  -0.326  -0.320  -0.317  -0.314
 -0.306  -0.304  -0.300  -0.296  -0.293  -0.286  -0.281  -0.272
 -0.271  -0.262  -0.253  -0.243  -0.232  -0.230  -0.228  -0.194
 -0.178  -0.168  -0.166  -0.161  -0.148  -0.142  -0.141  -0.139
 -0.138

          Ground-State Mulliken Net Atomic Charges

     Atom                 Charge (a.u.)
  ----------------------------------------
      1 O                    -0.215092
      2 C                     0.209660
      3 C                    -0.081051
      4 C                    -0.078090
      5 C                     0.233883
      6 O                    -0.168657
      7 C                    -0.055031
      8 C                    -0.049478
      9 O                    -0.171241
     10 C                     0.217296
     11 C                    -0.077951
     12 C                    -0.080477
     13 C                     0.210969
     14 O                    -0.227158
     15 O                    -0.169877
     16 O                    -0.172740
     17 O                    -0.212299
     18 C                    -0.148283
     19 C                     0.024761
     20 C                    -0.143522
     21 C                    -0.144860
     22 C                     0.027517
     23 O                    -0.184627
     24 H                     0.084732
     25 H                     0.081733
     26 H                     0.088258
     27 H                     0.077725
     28 H                     0.072162
     29 H                     0.077556
     30 H                     0.072879
     31 H                     0.085925
     32 O                    -0.217140
     33 C                    -0.128604
     34 C                     0.026251
     35 C                    -0.144071
     36 C                    -0.143868
     37 C                     0.024078
     38 O                    -0.187930
     39 H                     0.085567
     40 H                     0.101016
     41 H                     0.087943
     42 H                     0.082682
     43 H                     0.076811
     44 H                     0.074776
     45 H                     0.076480
     46 H                     0.076168
     47 H                     0.090406
     48 H                     0.090732
     49 H                     0.088299
     50 H                     0.105289
     51 H                     0.087388
     52 H                     0.080872
     53 H                     0.092433
     54 H                     0.092888
     55 H                     0.088662
     56 H                     0.108250
  ----------------------------------------
  Sum of atomic charges =    -0.000000

                    Cartesian Multipole Moments
 -----------------------------------------------------------------
    Charge (ESU x 10^10)
                -0.0000
    Dipole Moment (Debye)
         X      -1.4457      Y       2.7606      Z       0.8823
       Tot       3.2387
    Quadrupole Moments (Debye-Ang)
        XX    -150.1791     XY      -6.3529     YY    -159.9526
        XZ      -0.5919     YZ       2.2294     ZZ    -153.3670

 Total job time:  126.30s(wall), 6022.51s(cpu)
        *  Thank you very much for using Q-Chem.  Have a nice day.  *
