 Q-Chem 5.0, Q-Chem, Inc., Pleasanton, CA (2017)
 Q-Chem 5.0.1 for Intel X86 EM64T Linux

User input:
--------------------------------------------------------------
$molecule
0  1
O 4.2493952947 -2.9500294138 -0.2136959464
C 4.1579595054 -1.7651232805 0.1733418985
C 4.432978637 -0.4736524585 -0.6751739674
C 3.20524329 0.5259356796 -0.7438367394
C 1.9116508249 -0.0531731131 -0.0743920441
O 1.0947602596 1.007856946 0.403292681
C -0.0928433354 0.4515343811 1.0995229702
C -0.9226873816 1.6459215104 1.7022392212
O -2.3626194643 1.4114867122 1.4339545757
C -2.610692818 1.526348934 0.0276182299
C -4.1267591504 1.2724560129 -0.2753607344
C -4.3311493021 -0.0907440717 -1.0739841283
C -3.0412338487 -0.8086930969 -1.6086694071
O -2.813818348 -1.0509291031 -2.8154840202
O 3.873883927 -1.3765507018 1.5247506921
O -2.1682344481 -1.2120810475 -0.5369399889
O -1.7381316376 1.8315270935 -0.8152649757
C -1.1200783686 -2.1347601819 -1.0592094303
C -4.9694674047 0.970285863 1.0313580641
C -6.506470782 0.9469690102 0.6620388367
C -6.6376563606 -0.4596863409 -0.0311537254
C -5.1364108252 -0.9478662034 0.0009328207
O -4.6458500765 -0.4502936311 1.3043604725
H -4.5173919963 2.1295556833 -0.8527134849
H -4.9544171886 0.0879774473 -1.9685248435
H -4.7012416257 1.6010347931 1.8997761295
H -7.1222188214 1.0087089979 1.5730860821
H -6.7828061245 1.7770840609 -0.0075859038
H -7.2735767019 -1.140603692 0.5571155872
H -7.0378402887 -0.3969689469 -1.0556170624
H -4.9908988494 -2.0427140087 -0.0769267215
O 1.5909409437 -1.2663699539 -0.016369253
C 3.5242740978 -2.5710738592 2.3242636509
C 5.5176494335 0.4602386312 0.0203650888
C 5.9964902221 1.5414442898 -1.0286819703
C 4.7710405602 2.5291363718 -1.0333839446
C 3.7988838231 1.8070509439 -0.0204600826
O 4.7195743346 1.2418306534 0.9921578469
H 4.7494981252 -0.7966717226 -1.6822181093
H 2.9508733265 0.757495921 -1.7955629115
H 4.3324288271 -3.3306197378 2.3078048986
H 6.3295471784 -0.0870881146 0.5371708596
H 6.9154443749 2.0373339468 -0.6780861428
H 6.1900858881 1.0989757223 -2.0189030374
H 5.0531479771 3.5235427903 -0.6522150438
H 4.3209300478 2.6476037393 -2.0319310557
H 3.0341722984 2.4498715877 0.4561954566
H 2.5903380621 -3.0406306809 1.952177604
H 3.372002587 -2.2131120433 3.3590532672
H -0.1369104937 -1.851787945 -0.6184807133
H -1.0899509002 -2.0638817816 -2.1639419114
H -1.3776135091 -3.1705523989 -0.7618672331
H -0.8278148595 1.7008844259 2.8037055892
H -0.5768193036 2.5999960204 1.2474437693
H 0.2347722902 -0.2441812689 1.9010686489
H -0.7551528614 -0.1148936886 0.4059821171
$end

$rem
JOBTYPE                   OPT
METHOD                    B3LYP
DFT_D                     d3_op
BASIS                     STO-3G
GEOM_OPT_MAX_CYCLES       100
GEOM_OPT_TOL_GRADIENT     300
GEOM_OPT_TOL_DISPLACEMENT 1200
GEOM_OPT_TOL_ENERGY       100
SYMMETRY                  False
THRESH                    12
SCF_CONVERGENCE           8
MAX_SUB_FILE_NUM          128
MEM_STATIC                400
MEM_TOTAL                 4000
$end
--------------------------------------------------------------

   16   -1510.2848522013      5.95E-09 Convergence criterion met
 Total energy in the final basis set = -1510.28485220
   15   -1510.2414080656      4.71E-09 Convergence criterion met
 Total energy in the final basis set = -1510.24140807
   14   -1510.2833557392      3.89E-09 Convergence criterion met
 Total energy in the final basis set = -1510.28335574
   14   -1510.2848006445      8.69E-09 Convergence criterion met
 Total energy in the final basis set = -1510.28480064
   14   -1510.2859993373      8.45E-09 Convergence criterion met
 Total energy in the final basis set = -1510.28599934
   14   -1510.2854413668      1.79E-09 Convergence criterion met
 Total energy in the final basis set = -1510.28544137
   14   -1510.2859271499      4.23E-09 Convergence criterion met
 Total energy in the final basis set = -1510.28592715
   14   -1510.2854514340      8.27E-09 Convergence criterion met
   12   -1510.2911186763      9.06E-09 Convergence criterion met
 Total energy in the final basis set = -1510.29111868
   12   -1510.2911706416      6.71E-09 Convergence criterion met
 Total energy in the final basis set = -1510.29117064
   12   -1510.2912272501      3.08E-09 Convergence criterion met
 Total energy in the final basis set = -1510.29122725
   12   -1510.2912708165      3.88E-09 Convergence criterion met
 Total energy in the final basis set = -1510.29127082
   11   -1510.2912871805      9.92E-09 Convergence criterion met
 Total energy in the final basis set = -1510.29128718
   11   -1510.2912939498      5.34E-09 Convergence criterion met
 Total energy in the final basis set = -1510.29129395

             Standard Nuclear Orientation (Angstroms)
    I     Atom           X                Y                Z
 ----------------------------------------------------------------
    1      O       2.4722429640    -1.9013624184    -1.4885223438
    2      C       3.2366357036    -1.4134905730    -0.6268054604
    3      C       4.1023213603    -0.1073245927    -0.7936890564
    4      C       3.3539154505     1.2229573287    -0.3669229424
    5      C       1.9335186481     0.9631636111     0.2258291848
    6      O       1.2509394090     2.2074258533     0.3590631232
    7      C      -0.1329436328     1.9970241885     0.8623522897
    8      C      -1.1532101466     2.4549035513    -0.2377761564
    9      O      -2.4865961481     1.9124373014     0.1126375142
   10      C      -3.0413945209     1.2001796660    -1.0022872841
   11      C      -4.4207021998     0.5634820161    -0.5941848362
   12      C      -4.4202735940    -1.0223465592    -0.7060985154
   13      C      -3.0696631315    -1.6390326031    -1.2028708190
   14      O      -2.9254986449    -2.4849568161    -2.1122089605
   15      O       3.5389338081    -2.0327709444     0.6282387155
   16      O      -1.9990410245    -1.0926015245    -0.4289709145
   17      O      -2.5081518441     1.1508765519    -2.1331669466
   18      C      -0.6984516520    -1.6053666938    -0.9237024535
   19      C      -4.7821537034     0.7568352147     0.9355159394
   20      C      -6.3109059232     0.4086339977     1.1370318499
   21      C      -6.2804809629    -1.1629909051     1.0584649609
   22      C      -4.7439598823    -1.4217912786     0.8016726123
   23      O      -4.0771251677    -0.3665692250     1.5954008749
   24      H      -5.1951558339     0.9948476052    -1.2550935440
   25      H      -5.2131894313    -1.3734809901    -1.3894679078
   26      H      -4.4540907147     1.7236061504     1.3609147141
   27      H      -6.6592502620     0.7574355327     2.1222068913
   28      H      -6.9452863079     0.8610521791     0.3581606334
   29      H      -6.5928449692    -1.6213934950     2.0102939324
   30      H      -6.9116293483    -1.5635844923     0.2491919112
   31      H      -4.3772596810    -2.4231393062     1.1002185136
   32      O       1.4505988560    -0.1467334900     0.5581913789
   33      C       2.6856173664    -3.2273019760     0.8124080763
   34      C       5.3706661418    -0.0531727028     0.1606368796
   35      C       6.3660457859     1.0364608988    -0.4028061374
   36      C       5.6235912903     2.3641482923     0.0001504758
   37      C       4.3510229229     1.7890815052     0.7385170278
   38      O       4.8486862442     0.5659008989     1.4025489488
   39      H       4.3951628916    -0.0499681510    -1.8572994208
   40      H       3.2536054574     1.9313507343    -1.2086582825
   41      H       2.7920396630    -3.9419674880    -0.0291892727
   42      H       5.8193629391    -1.0403684759     0.3808120865
   43      H       7.3459454371     0.9553001643     0.0940164005
   44      H       6.5126467864     0.9429490450    -1.4907074492
   45      H       6.2272457568     2.9724852417     0.6923564494
   46      H       5.3517101292     2.9824859769    -0.8702245228
   47      H       3.8780544367     2.4720098945     1.4707731099
   48      H       1.6170408285    -2.9445558219     0.9035276117
   49      H       3.0231886177    -3.7031218053     1.7513803790
   50      H       0.0861973163    -1.0997038726    -0.3218782034
   51      H      -0.5573237781    -1.3699786117    -1.9975367691
   52      H      -0.6233239739    -2.7035845865    -0.7943185301
   53      H      -1.2112055518     3.5629272855    -0.2832744095
   54      H      -0.8638282838     2.0654267933    -1.2395664923
   55      H      -0.2542626603     2.5948872865     1.7888408283
   56      H      -0.2776374699     0.9193082439     1.0917184500
 ----------------------------------------------------------------

    9   -1510.2912942897      7.66E-09 Convergence criterion met
 Total energy in the final basis set = -1510.29129429
 Final energy is   -1510.29129428966
 **  OPTIMIZATION CONVERGED  **

                    Orbital Energies (a.u.)
 --------------------------------------------------------------

 Alpha MOs
 -- Occupied --
-18.950 -18.933 -18.924 -18.923 -18.898 -18.891 -18.885 -18.871
-18.866 -18.859 -10.117 -10.101 -10.092 -10.090 -10.074 -10.069
-10.065 -10.060 -10.058 -10.056 -10.054 -10.046 -10.038 -10.037
-10.036 -10.033 -10.024 -10.021 -10.019 -10.018  -1.028  -1.012
 -1.000  -0.999  -0.973  -0.967  -0.952  -0.936  -0.926  -0.925
 -0.767  -0.761  -0.730  -0.722  -0.715  -0.707  -0.695  -0.653
 -0.645  -0.618  -0.596  -0.579  -0.548  -0.543  -0.539  -0.535
 -0.518  -0.509  -0.486  -0.477  -0.466  -0.464  -0.456  -0.438
 -0.436  -0.431  -0.427  -0.411  -0.409  -0.404  -0.400  -0.399
 -0.396  -0.381  -0.373  -0.367  -0.364  -0.353  -0.348  -0.347
 -0.341  -0.336  -0.335  -0.330  -0.328  -0.328  -0.317  -0.315
 -0.308  -0.305  -0.303  -0.301  -0.291  -0.289  -0.281  -0.279
 -0.270  -0.261  -0.248  -0.245  -0.240  -0.236  -0.231  -0.194
 -0.172  -0.172  -0.166  -0.165  -0.157  -0.148  -0.142  -0.141
 -0.141

          Ground-State Mulliken Net Atomic Charges

     Atom                 Charge (a.u.)
  ----------------------------------------
      1 O                    -0.223419
      2 C                     0.212972
      3 C                    -0.081189
      4 C                    -0.078031
      5 C                     0.221641
      6 O                    -0.169045
      7 C                    -0.055069
      8 C                    -0.053907
      9 O                    -0.171002
     10 C                     0.217276
     11 C                    -0.077396
     12 C                    -0.079918
     13 C                     0.208305
     14 O                    -0.211963
     15 O                    -0.168148
     16 O                    -0.173468
     17 O                    -0.219722
     18 C                    -0.141215
     19 C                     0.024464
     20 C                    -0.144649
     21 C                    -0.143672
     22 C                     0.025932
     23 O                    -0.186855
     24 H                     0.084283
     25 H                     0.084547
     26 H                     0.090611
     27 H                     0.077189
     28 H                     0.072601
     29 H                     0.077510
     30 H                     0.073994
     31 H                     0.082987
     32 O                    -0.208796
     33 C                    -0.127340
     34 C                     0.026163
     35 C                    -0.144290
     36 C                    -0.143491
     37 C                     0.025957
     38 O                    -0.186556
     39 H                     0.083943
     40 H                     0.088964
     41 H                     0.087317
     42 H                     0.089865
     43 H                     0.078404
     44 H                     0.074051
     45 H                     0.078854
     46 H                     0.074216
     47 H                     0.085094
     48 H                     0.091199
     49 H                     0.088489
     50 H                     0.105596
     51 H                     0.088678
     52 H                     0.083047
     53 H                     0.083333
     54 H                     0.102351
     55 H                     0.089280
     56 H                     0.110028
  ----------------------------------------
  Sum of atomic charges =     0.000000

                    Cartesian Multipole Moments
 -----------------------------------------------------------------
    Charge (ESU x 10^10)
                 0.0000
    Dipole Moment (Debye)
         X       0.3139      Y       2.3658      Z       0.7394
       Tot       2.4985
    Quadrupole Moments (Debye-Ang)
        XX    -136.6414     XY       0.8816     YY    -153.7997
        XZ      -8.5964     YZ      -5.1751     ZZ    -170.6224

 Total job time:  172.47s(wall), 8228.88s(cpu)
        *  Thank you very much for using Q-Chem.  Have a nice day.  *
