 Q-Chem 5.0, Q-Chem, Inc., Pleasanton, CA (2017)
 Q-Chem 5.0.1 for Intel X86 EM64T Linux

User input:
--------------------------------------------------------------
$molecule
0  1
O -3.94934 -3.66094 2.70899
C -3.26408 -4.56952 2.26188
C -3.36658 -6.02376 2.66595
C -3.64175 -7.04528 1.55032
C -3.60713 -6.52065 0.13199
O -3.25909 -7.52487 -0.72582
C -3.13848 -7.08882 -2.08397
C -2.65575 -8.23726 -2.96385
O -3.4119 -8.26982 -4.18453
C -4.71662 -8.61563 -4.05319
C -5.45855 -8.62332 -5.36854
C -6.51771 -7.52183 -5.52076
C -6.43684 -6.38482 -4.52207
O -7.31821 -6.06728 -3.73663
O -2.28679 -4.26138 1.36649
O -5.28715 -5.65589 -4.51968
O -5.26178 -8.89365 -2.99138
C -5.09967 -4.49783 -3.79242
C -4.62025 -8.34873 -6.64578
C -5.32507 -8.94805 -7.86372
C -6.50473 -8.00722 -8.00246
C -6.16563 -6.98187 -6.91573
O -4.75838 -6.96946 -6.88371
H -5.88528 -9.64678 -5.46861
H -7.54784 -7.93673 -5.45195
H -3.58067 -8.73847 -6.59575
H -4.64828 -8.79594 -8.73532
H -5.58355 -10.02624 -7.7899
H -6.46686 -7.54231 -9.01258
H -7.50212 -8.46688 -7.83019
H -6.65945 -6.00691 -7.12381
O -4.22963 -5.52684 -0.22435
C -2.03492 -2.99093 0.89324
C -2.03811 -6.54719 3.23802
C -2.29993 -7.74292 4.14931
C -2.67573 -8.79281 3.12798
C -2.4552 -8.00987 1.82741
O -1.39841 -7.13515 2.13403
H -4.15257 -6.07155 3.45372
H -4.622 -7.55639 1.67536
H -1.76277 -2.31643 1.73301
H -1.45946 -5.76848 3.78238
H -1.32589 -8.02647 4.60889
H -3.04886 -7.57066 4.95203
H -1.94697 -9.63047 3.20562
H -3.71292 -9.18469 3.20598
H -2.25717 -8.7366 1.01158
H -2.9296 -2.59511 0.36673
H -1.18822 -3.03112 0.17777
H -4.06865 -4.12528 -3.96136
H -5.23979 -4.68965 -2.7082
H -5.82069 -3.7208 -4.12435
H -1.56828 -8.13152 -3.16247
H -2.79092 -9.21528 -2.44662
H -2.45684 -6.21592 -2.20214
H -4.14686 -6.7596 -2.39985
$end

$opt
CONSTRAINT
tors           1           2           3           4    +122.925
tors           3           4           5           6    +152.562
tors           4           5           6           7    -177.015
tors           5           6           7           8    +176.105
tors           6           7           8           9    +136.260
tors           7           8           9          10     -68.225
tors           8           9          10          11    +179.642
tors           9          10          11          12    -111.554
tors          11          12          13          14    -120.040
ENDCONSTRAINT
$end

$rem
JOBTYPE                   OPT
METHOD                    B3LYP
DFT_D                     d3_op
BASIS                     STO-3G
GEOM_OPT_MAX_CYCLES       100
GEOM_OPT_TOL_GRADIENT     300
GEOM_OPT_TOL_DISPLACEMENT 1200
GEOM_OPT_TOL_ENERGY       100
SYMMETRY                  False
THRESH                    12
SCF_CONVERGENCE           8
MAX_SUB_FILE_NUM          128
MEM_STATIC                400
MEM_TOTAL                 4000
$end
--------------------------------------------------------------

   15   -1510.1487261595      7.92E-09 Convergence criterion met
 Total energy in the final basis set = -1510.14872616
   14   -1510.2180727300      5.69E-09 Convergence criterion met
 Total energy in the final basis set = -1510.21807273
   14   -1510.2554097319      7.04E-09 Convergence criterion met
 Total energy in the final basis set = -1510.25540973
   14   -1510.2717609856      5.82E-09 Convergence criterion met
 Total energy in the final basis set = -1510.27176099
   14   -1510.2772167097      3.55E-09 Convergence criterion met
 Total energy in the final basis set = -1510.27721671
    2   -1510.2772167095      1.40E-09 Convergence criterion met
 Total energy in the final basis set = -1510.27721671
   13   -1510.2792783262      7.26E-09 Convergence criterion met
 Total energy in the final basis set = -1510.27927833
   12   -1510.2800842650      7.35E-09 Convergence criterion met
   11   -1510.2848366462      4.87E-09 Convergence criterion met
 Total energy in the final basis set = -1510.28483665
   11   -1510.2848455875      2.89E-09 Convergence criterion met
 Total energy in the final basis set = -1510.28484559
   10   -1510.2848569445      9.51E-09 Convergence criterion met
 Total energy in the final basis set = -1510.28485694
    9   -1510.2848630334      8.25E-09 Convergence criterion met
 Total energy in the final basis set = -1510.28486303
    9   -1510.2848684695      8.53E-09 Convergence criterion met
 Total energy in the final basis set = -1510.28486847
    9   -1510.2848706761      6.96E-09 Convergence criterion met
 Total energy in the final basis set = -1510.28487068

             Standard Nuclear Orientation (Angstroms)
    I     Atom           X                Y                Z
 ----------------------------------------------------------------
    1      O       4.2493952947    -2.9500294138    -0.2136959464
    2      C       4.1579595054    -1.7651232805     0.1733418985
    3      C       4.4329786370    -0.4736524585    -0.6751739674
    4      C       3.2052432900     0.5259356796    -0.7438367394
    5      C       1.9116508249    -0.0531731131    -0.0743920441
    6      O       1.0947602596     1.0078569460     0.4032926810
    7      C      -0.0928433354     0.4515343811     1.0995229702
    8      C      -0.9226873816     1.6459215104     1.7022392212
    9      O      -2.3626194643     1.4114867122     1.4339545757
   10      C      -2.6106928180     1.5263489340     0.0276182299
   11      C      -4.1267591504     1.2724560129    -0.2753607344
   12      C      -4.3311493021    -0.0907440717    -1.0739841283
   13      C      -3.0412338487    -0.8086930969    -1.6086694071
   14      O      -2.8138183480    -1.0509291031    -2.8154840202
   15      O       3.8738839270    -1.3765507018     1.5247506921
   16      O      -2.1682344481    -1.2120810475    -0.5369399889
   17      O      -1.7381316376     1.8315270935    -0.8152649757
   18      C      -1.1200783686    -2.1347601819    -1.0592094303
   19      C      -4.9694674047     0.9702858630     1.0313580641
   20      C      -6.5064707820     0.9469690102     0.6620388367
   21      C      -6.6376563606    -0.4596863409    -0.0311537254
   22      C      -5.1364108252    -0.9478662034     0.0009328207
   23      O      -4.6458500765    -0.4502936311     1.3043604725
   24      H      -4.5173919963     2.1295556833    -0.8527134849
   25      H      -4.9544171886     0.0879774473    -1.9685248435
   26      H      -4.7012416257     1.6010347931     1.8997761295
   27      H      -7.1222188214     1.0087089979     1.5730860821
   28      H      -6.7828061245     1.7770840609    -0.0075859038
   29      H      -7.2735767019    -1.1406036920     0.5571155872
   30      H      -7.0378402887    -0.3969689469    -1.0556170624
   31      H      -4.9908988494    -2.0427140087    -0.0769267215
   32      O       1.5909409437    -1.2663699539    -0.0163692530
   33      C       3.5242740978    -2.5710738592     2.3242636509
   34      C       5.5176494335     0.4602386312     0.0203650888
   35      C       5.9964902221     1.5414442898    -1.0286819703
   36      C       4.7710405602     2.5291363718    -1.0333839446
   37      C       3.7988838231     1.8070509439    -0.0204600826
   38      O       4.7195743346     1.2418306534     0.9921578469
   39      H       4.7494981252    -0.7966717226    -1.6822181093
   40      H       2.9508733265     0.7574959210    -1.7955629115
   41      H       4.3324288271    -3.3306197378     2.3078048986
   42      H       6.3295471784    -0.0870881146     0.5371708596
   43      H       6.9154443749     2.0373339468    -0.6780861428
   44      H       6.1900858881     1.0989757223    -2.0189030374
   45      H       5.0531479771     3.5235427903    -0.6522150438
   46      H       4.3209300478     2.6476037393    -2.0319310557
   47      H       3.0341722984     2.4498715877     0.4561954566
   48      H       2.5903380621    -3.0406306809     1.9521776040
   49      H       3.3720025870    -2.2131120433     3.3590532672
   50      H      -0.1369104937    -1.8517879450    -0.6184807133
   51      H      -1.0899509002    -2.0638817816    -2.1639419114
   52      H      -1.3776135091    -3.1705523989    -0.7618672331
   53      H      -0.8278148595     1.7008844259     2.8037055892
   54      H      -0.5768193036     2.5999960204     1.2474437693
   55      H       0.2347722902    -0.2441812689     1.9010686489
   56      H      -0.7551528614    -0.1148936886     0.4059821171
 ----------------------------------------------------------------

    8   -1510.2848711855      9.58E-09 Convergence criterion met
 Total energy in the final basis set = -1510.28487119
 Final energy is   -1510.28487118554
 **  OPTIMIZATION CONVERGED  **

                    Orbital Energies (a.u.)
 --------------------------------------------------------------

 Alpha MOs
 -- Occupied --
-18.945 -18.938 -18.931 -18.922 -18.889 -18.887 -18.882 -18.877
-18.874 -18.864 -10.109 -10.102 -10.099 -10.090 -10.076 -10.066
-10.062 -10.060 -10.059 -10.058 -10.055 -10.042 -10.040 -10.039
-10.039 -10.034 -10.022 -10.021 -10.020 -10.019  -1.022  -1.015
 -1.007  -1.000  -0.971  -0.969  -0.943  -0.938  -0.933  -0.926
 -0.765  -0.762  -0.729  -0.722  -0.714  -0.707  -0.694  -0.653
 -0.650  -0.617  -0.598  -0.582  -0.547  -0.545  -0.538  -0.537
 -0.518  -0.512  -0.488  -0.474  -0.469  -0.463  -0.446  -0.442
 -0.434  -0.432  -0.428  -0.414  -0.409  -0.406  -0.404  -0.400
 -0.389  -0.383  -0.369  -0.367  -0.363  -0.359  -0.347  -0.346
 -0.342  -0.340  -0.336  -0.332  -0.329  -0.323  -0.321  -0.312
 -0.308  -0.305  -0.305  -0.301  -0.299  -0.289  -0.283  -0.276
 -0.272  -0.260  -0.255  -0.244  -0.243  -0.235  -0.233  -0.183
 -0.180  -0.173  -0.166  -0.160  -0.159  -0.151  -0.144  -0.142
 -0.142

          Ground-State Mulliken Net Atomic Charges

     Atom                 Charge (a.u.)
  ----------------------------------------
      1 O                    -0.215163
      2 C                     0.211889
      3 C                    -0.080148
      4 C                    -0.077660
      5 C                     0.221921
      6 O                    -0.165805
      7 C                    -0.056036
      8 C                    -0.047604
      9 O                    -0.166043
     10 C                     0.209408
     11 C                    -0.078273
     12 C                    -0.079609
     13 C                     0.208014
     14 O                    -0.209175
     15 O                    -0.171291
     16 O                    -0.175367
     17 O                    -0.216027
     18 C                    -0.151663
     19 C                     0.025174
     20 C                    -0.145143
     21 C                    -0.142984
     22 C                     0.025809
     23 O                    -0.185842
     24 H                     0.086831
     25 H                     0.085821
     26 H                     0.090106
     27 H                     0.078140
     28 H                     0.073301
     29 H                     0.078232
     30 H                     0.074335
     31 H                     0.083826
     32 O                    -0.218227
     33 C                    -0.128622
     34 C                     0.026353
     35 C                    -0.144443
     36 C                    -0.143523
     37 C                     0.024309
     38 O                    -0.186793
     39 H                     0.084643
     40 H                     0.087776
     41 H                     0.087803
     42 H                     0.083359
     43 H                     0.077673
     44 H                     0.074027
     45 H                     0.077836
     46 H                     0.073937
     47 H                     0.090513
     48 H                     0.090041
     49 H                     0.087638
     50 H                     0.105887
     51 H                     0.097079
     52 H                     0.079620
     53 H                     0.092628
     54 H                     0.095790
     55 H                     0.086311
     56 H                     0.109410
  ----------------------------------------
  Sum of atomic charges =     0.000000

                    Cartesian Multipole Moments
 -----------------------------------------------------------------
    Charge (ESU x 10^10)
                 0.0000
    Dipole Moment (Debye)
         X      -1.2856      Y       1.9424      Z       0.5619
       Tot       2.3961
    Quadrupole Moments (Debye-Ang)
        XX    -142.1441     XY       1.9723     YY    -160.6609
        XZ      -3.1619     YZ      -3.2459     ZZ    -163.0667

 Total job time:  99.06s(wall), 4718.34s(cpu)
        *  Thank you very much for using Q-Chem.  Have a nice day.  *
