 Q-Chem 5.0, Q-Chem, Inc., Pleasanton, CA (2017)
 Q-Chem 5.0.1 for Intel X86 EM64T Linux

User input:
--------------------------------------------------------------
$molecule
0  1
O -3.94934 -3.66094 2.70899
C -3.26408 -4.56952 2.26188
C -3.36658 -6.02376 2.66595
C -3.81401 -7.02306 1.58657
C -3.93756 -6.48444 0.17848
O -3.62926 -7.46418 -0.72179
C -3.41737 -6.96511 -2.04666
C -3.07872 -8.11252 -2.99266
O -3.92007 -8.05292 -4.15518
C -5.22125 -8.37566 -3.95043
C -6.07195 -8.20214 -5.1861
C -7.45561 -7.58398 -4.93784
C -7.64798 -6.91333 -3.59251
O -8.66023 -6.97206 -2.90952
O -2.34521 -4.27741 1.30204
O -6.70952 -5.99485 -3.23897
O -5.62036 -8.97946 -2.96151
C -6.83562 -5.13554 -2.1673
C -5.52434 -7.25113 -6.27608
C -6.15406 -7.59618 -7.62643
C -7.56745 -7.09406 -7.41846
C -7.43948 -6.48502 -6.01942
O -6.11397 -6.01152 -5.97784
H -6.17973 -9.22525 -5.61145
H -8.29919 -8.2945 -5.08535
H -4.41843 -7.25671 -6.37739
H -5.66308 -6.9581 -8.39601
H -6.06745 -8.66283 -7.92588
H -7.76984 -6.29538 -8.16651
H -8.36156 -7.87026 -7.46678
H -8.23335 -5.72287 -5.85457
O -4.55169 -5.46642 -0.10949
C -2.12817 -3.01606 0.78906
C -2.009 -6.6082 3.08716
C -2.22307 -7.79643 4.02026
C -2.75767 -8.82229 3.04573
C -2.64915 -8.04313 1.72868
O -1.52526 -7.21869 1.917
H -4.07093 -6.04827 3.5287
H -4.79739 -7.48348 1.82898
H -1.80905 -2.32373 1.59715
H -1.33918 -5.85869 3.56348
H -1.21852 -8.12698 4.36944
H -2.87046 -7.59461 4.90066
H -2.06254 -9.69158 3.04007
H -3.79574 -9.16904 3.23929
H -2.57745 -8.77564 0.89738
H -3.05482 -2.63402 0.3097
H -1.32622 -3.06797 0.02447
H -5.94022 -4.48367 -2.11645
H -6.92827 -5.71358 -1.22332
H -7.73084 -4.49095 -2.29792
H -2.01408 -8.02461 -3.29703
H -3.1794 -9.10573 -2.49819
H -2.60461 -6.20391 -2.0714
H -4.34318 -6.46222 -2.38994
$end

$opt
CONSTRAINT
tors           1           2           3           4    +115.486
tors           3           4           5           6    +147.729
tors           4           5           6           7    -166.256
tors           5           6           7           8    -180.000
tors           6           7           8           9    +129.336
tors           7           8           9          10     -71.156
tors           8           9          10          11    +176.019
tors           9          10          11          12    -138.851
tors          11          12          13          14    -140.308
ENDCONSTRAINT
$end

$rem
JOBTYPE                   OPT
METHOD                    B3LYP
DFT_D                     d3_op
BASIS                     STO-3G
GEOM_OPT_MAX_CYCLES       100
GEOM_OPT_TOL_GRADIENT     300
GEOM_OPT_TOL_DISPLACEMENT 1200
GEOM_OPT_TOL_ENERGY       100
SYMMETRY                  False
THRESH                    12
SCF_CONVERGENCE           8
MAX_SUB_FILE_NUM          128
MEM_STATIC                400
MEM_TOTAL                 4000
$end
--------------------------------------------------------------

   15   -1510.1508590018      7.54E-09 Convergence criterion met
 Total energy in the final basis set = -1510.15085900
   13   -1510.2207192631      7.34E-09 Convergence criterion met
 Total energy in the final basis set = -1510.22071926
   14   -1510.2578400282      3.98E-09 Convergence criterion met
 Total energy in the final basis set = -1510.25784003
   14   -1510.2719612493      2.77E-09 Convergence criterion met
 Total energy in the final basis set = -1510.27196125
   14   -1510.2799950431      5.48E-09 Convergence criterion met
 Total energy in the final basis set = -1510.27999504
   13   -1510.2827245008      6.46E-09 Convergence criterion met
 Total energy in the final basis set = -1510.28272450
   13   -1510.2836603638      2.93E-09 Convergence criterion met
 Total energy in the final basis set = -1510.28366036
   12   -1510.2839565448      6.53E-09 Convergence criterion met
   12   -1510.2847820507      4.80E-09 Convergence criterion met
 Total energy in the final basis set = -1510.28478205
   11   -1510.2848105954      6.67E-09 Convergence criterion met
 Total energy in the final basis set = -1510.28481060
   10   -1510.2848237853      7.81E-09 Convergence criterion met
 Total energy in the final basis set = -1510.28482379
   12   -1510.2848546343      3.57E-09 Convergence criterion met
 Total energy in the final basis set = -1510.28485463
    9   -1510.2848643336      7.86E-09 Convergence criterion met
 Total energy in the final basis set = -1510.28486433
   11   -1510.2848800724      9.12E-09 Convergence criterion met
 Total energy in the final basis set = -1510.28488007

             Standard Nuclear Orientation (Angstroms)
    I     Atom           X                Y                Z
 ----------------------------------------------------------------
    1      O       4.1722847775    -2.9684034581    -0.0908247258
    2      C       4.1424654388    -1.7627413867     0.2368690596
    3      C       4.4075080917    -0.5273332784    -0.6940205642
    4      C       3.1456506000     0.4137737724    -0.8921439380
    5      C       1.8732519076    -0.1075551077    -0.1342133550
    6      O       1.0776719996     0.9919324107     0.2952547865
    7      C       0.0629156534     0.5438681644     1.2836783235
    8      C      -0.7625053039     1.8207328613     1.6968375953
    9      O      -2.2148842680     1.5547425871     1.5754241535
   10      C      -2.5693654508     1.4722707804     0.1886824732
   11      C      -4.0821374440     1.0910644956     0.0479088298
   12      C      -4.3417635170     0.0384362829    -1.1089292996
   13      C      -3.0712935447    -0.6592968854    -1.7122793789
   14      O      -2.8932634495    -0.9148556369    -2.9241429124
   15      O       3.9122410362    -1.2923126581     1.5720525857
   16      O      -2.1922628157    -1.0919653338    -0.6621993132
   17      O      -1.7814786693     1.7250005234    -0.7486397361
   18      C      -1.1202195481    -1.9557798012    -1.2219347952
   19      C      -4.7204868790     0.3527894062     1.2996765220
   20      C      -6.2862881336     0.5287720448     1.2119805972
   21      C      -6.6243837467    -0.4260715513     0.0068943501
   22      C      -5.2025742254    -1.0394507214    -0.3113247372
   23      O      -4.5279175355    -1.0858865096     1.0047453095
   24      H      -4.6333976903     2.0257726180    -0.1680428176
   25      H      -4.9075827501     0.4794270176    -1.9478764252
   26      H      -4.2552714847     0.6189544683     2.2677818400
   27      H      -6.7626196057     0.1843862563     2.1438120693
   28      H      -6.5827023977     1.5737403301     1.0274015665
   29      H      -7.3307639648    -1.2183882838     0.3011765334
   30      H      -7.0408177047     0.1146539333    -0.8580377149
   31      H      -5.2187334828    -2.0451413696    -0.7746112609
   32      O       1.5678671848    -1.3089687655     0.0640477471
   33      C       3.5522222747    -2.4295875821     2.4472329838
   34      C       5.4356219376     0.5040831424    -0.0539929198
   35      C       5.9416328716     1.4754963522    -1.1929365152
   36      C       4.6855136780     2.4057991717    -1.3802474451
   37      C       3.6905847473     1.7885718124    -0.3210230592
   38      O       4.5786653486     1.3701651853     0.7872875367
   39      H       4.7674884390    -0.9167055626    -1.6624275091
   40      H       2.8866873368     0.5025300672    -1.9642188551
   41      H       4.3433395248    -3.2069397911     2.4613248057
   42      H       6.2324560963     0.0374578616     0.5567054826
   43      H       6.8187490826     2.0463060538    -0.8490046863
   44      H       6.2123813083     0.9326508079    -2.1125380706
   45      H       4.9170296250     3.4521324672    -1.1251757128
   46      H       4.2774372799     2.3732830396    -2.4031629885
   47      H       2.8941779727     2.4634256583     0.0465791217
   48      H       2.6014119583    -2.8988293521     2.1203044958
   49      H       3.4284091491    -2.0080197044     3.4616888945
   50      H      -0.1835160132    -1.7672472093    -0.6524057531
   51      H      -0.9753149474    -1.7311968778    -2.2966869877
   52      H      -1.4110056595    -3.0203427293    -1.1155137618
   53      H      -0.5952298505     2.0838269220     2.7592633303
   54      H      -0.4521518543     2.6684675235     1.0477348606
   55      H       0.5651586610     0.0818021150     2.1602267607
   56      H      -0.6291808767    -0.2055364501     0.8391145018
 ----------------------------------------------------------------

    9   -1510.2848797240      8.43E-09 Convergence criterion met
 Total energy in the final basis set = -1510.28487972
 Final energy is   -1510.28487972404
 **  OPTIMIZATION CONVERGED  **

                    Orbital Energies (a.u.)
 --------------------------------------------------------------

 Alpha MOs
 -- Occupied --
-18.945 -18.938 -18.924 -18.924 -18.888 -18.887 -18.885 -18.876
-18.868 -18.865 -10.110 -10.103 -10.093 -10.092 -10.079 -10.075
-10.061 -10.060 -10.058 -10.058 -10.056 -10.041 -10.039 -10.039
-10.036 -10.035 -10.021 -10.020 -10.020 -10.019  -1.023  -1.016
 -1.001  -1.001  -0.970  -0.970  -0.946  -0.940  -0.927  -0.927
 -0.764  -0.762  -0.728  -0.722  -0.716  -0.706  -0.695  -0.654
 -0.648  -0.618  -0.598  -0.583  -0.546  -0.545  -0.538  -0.537
 -0.518  -0.511  -0.489  -0.474  -0.469  -0.460  -0.447  -0.441
 -0.433  -0.432  -0.430  -0.413  -0.409  -0.405  -0.404  -0.400
 -0.392  -0.383  -0.370  -0.367  -0.363  -0.356  -0.348  -0.345
 -0.345  -0.338  -0.337  -0.330  -0.330  -0.323  -0.319  -0.313
 -0.309  -0.305  -0.303  -0.301  -0.296  -0.291  -0.283  -0.276
 -0.272  -0.260  -0.256  -0.245  -0.239  -0.234  -0.234  -0.185
 -0.181  -0.169  -0.167  -0.161  -0.158  -0.147  -0.144  -0.143
 -0.143

          Ground-State Mulliken Net Atomic Charges

     Atom                 Charge (a.u.)
  ----------------------------------------
      1 O                    -0.213572
      2 C                     0.211492
      3 C                    -0.080515
      4 C                    -0.077611
      5 C                     0.221476
      6 O                    -0.166437
      7 C                    -0.050631
      8 C                    -0.048089
      9 O                    -0.171490
     10 C                     0.213575
     11 C                    -0.079363
     12 C                    -0.078069
     13 C                     0.210378
     14 O                    -0.214824
     15 O                    -0.172185
     16 O                    -0.175050
     17 O                    -0.213770
     18 C                    -0.146819
     19 C                     0.023536
     20 C                    -0.143327
     21 C                    -0.144517
     22 C                     0.025739
     23 O                    -0.187328
     24 H                     0.084540
     25 H                     0.085838
     26 H                     0.092143
     27 H                     0.077939
     28 H                     0.072944
     29 H                     0.078189
     30 H                     0.074128
     31 H                     0.082964
     32 O                    -0.215354
     33 C                    -0.128961
     34 C                     0.026310
     35 C                    -0.144181
     36 C                    -0.143970
     37 C                     0.023707
     38 O                    -0.187986
     39 H                     0.084690
     40 H                     0.088032
     41 H                     0.087873
     42 H                     0.083913
     43 H                     0.077722
     44 H                     0.074127
     45 H                     0.077899
     46 H                     0.074070
     47 H                     0.091077
     48 H                     0.091287
     49 H                     0.087317
     50 H                     0.101008
     51 H                     0.094384
     52 H                     0.079858
     53 H                     0.091992
     54 H                     0.099405
     55 H                     0.088741
     56 H                     0.105755
  ----------------------------------------
  Sum of atomic charges =    -0.000000

                    Cartesian Multipole Moments
 -----------------------------------------------------------------
    Charge (ESU x 10^10)
                -0.0000
    Dipole Moment (Debye)
         X      -0.7603      Y       2.2564      Z       1.0865
       Tot       2.6172
    Quadrupole Moments (Debye-Ang)
        XX    -142.1021     XY       0.5424     YY    -163.1218
        XZ      -5.4783     YZ      -2.4437     ZZ    -161.1388

 Total job time:  70.14s(wall), 3335.64s(cpu)
        *  Thank you very much for using Q-Chem.  Have a nice day.  *
