 Q-Chem 5.0, Q-Chem, Inc., Pleasanton, CA (2017)
 Q-Chem 5.0.1 for Intel X86 EM64T Linux

User input:
--------------------------------------------------------------
$molecule
0  1
O 4.1722847775 -2.9684034581 -0.0908247258
C 4.1424654388 -1.7627413867 0.2368690596
C 4.4075080917 -0.5273332784 -0.6940205642
C 3.1456506 0.4137737724 -0.892143938
C 1.8732519076 -0.1075551077 -0.134213355
O 1.0776719996 0.9919324107 0.2952547865
C 0.0629156534 0.5438681644 1.2836783235
C -0.7625053039 1.8207328613 1.6968375953
O -2.214884268 1.5547425871 1.5754241535
C -2.5693654508 1.4722707804 0.1886824732
C -4.082137444 1.0910644956 0.0479088298
C -4.341763517 0.0384362829 -1.1089292996
C -3.0712935447 -0.6592968854 -1.7122793789
O -2.8932634495 -0.9148556369 -2.9241429124
O 3.9122410362 -1.2923126581 1.5720525857
O -2.1922628157 -1.0919653338 -0.6621993132
O -1.7814786693 1.7250005234 -0.7486397361
C -1.1202195481 -1.9557798012 -1.2219347952
C -4.720486879 0.3527894062 1.299676522
C -6.2862881336 0.5287720448 1.2119805972
C -6.6243837467 -0.4260715513 0.0068943501
C -5.2025742254 -1.0394507214 -0.3113247372
O -4.5279175355 -1.0858865096 1.0047453095
H -4.6333976903 2.025772618 -0.1680428176
H -4.9075827501 0.4794270176 -1.9478764252
H -4.2552714847 0.6189544683 2.26778184
H -6.7626196057 0.1843862563 2.1438120693
H -6.5827023977 1.5737403301 1.0274015665
H -7.3307639648 -1.2183882838 0.3011765334
H -7.0408177047 0.1146539333 -0.8580377149
H -5.2187334828 -2.0451413696 -0.7746112609
O 1.5678671848 -1.3089687655 0.0640477471
C 3.5522222747 -2.4295875821 2.4472329838
C 5.4356219376 0.5040831424 -0.0539929198
C 5.9416328716 1.4754963522 -1.1929365152
C 4.685513678 2.4057991717 -1.3802474451
C 3.6905847473 1.7885718124 -0.3210230592
O 4.5786653486 1.3701651853 0.7872875367
H 4.767488439 -0.9167055626 -1.6624275091
H 2.8866873368 0.5025300672 -1.9642188551
H 4.3433395248 -3.2069397911 2.4613248057
H 6.2324560963 0.0374578616 0.5567054826
H 6.8187490826 2.0463060538 -0.8490046863
H 6.2123813083 0.9326508079 -2.1125380706
H 4.917029625 3.4521324672 -1.1251757128
H 4.2774372799 2.3732830396 -2.4031629885
H 2.8941779727 2.4634256583 0.0465791217
H 2.6014119583 -2.8988293521 2.1203044958
H 3.4284091491 -2.0080197044 3.4616888945
H -0.1835160132 -1.7672472093 -0.6524057531
H -0.9753149474 -1.7311968778 -2.2966869877
H -1.4110056595 -3.0203427293 -1.1155137618
H -0.5952298505 2.083826922 2.7592633303
H -0.4521518543 2.6684675235 1.0477348606
H 0.565158661 0.081802115 2.1602267607
H -0.6291808767 -0.2055364501 0.8391145018
$end

$rem
JOBTYPE                   OPT
METHOD                    B3LYP
DFT_D                     d3_op
BASIS                     STO-3G
GEOM_OPT_MAX_CYCLES       100
GEOM_OPT_TOL_GRADIENT     300
GEOM_OPT_TOL_DISPLACEMENT 1200
GEOM_OPT_TOL_ENERGY       100
SYMMETRY                  False
THRESH                    12
SCF_CONVERGENCE           8
MAX_SUB_FILE_NUM          128
MEM_STATIC                400
MEM_TOTAL                 4000
$end
--------------------------------------------------------------

   16   -1510.2849179690      5.37E-09 Convergence criterion met
 Total energy in the final basis set = -1510.28491797
   15   -1510.2714925071      3.18E-09 Convergence criterion met
 Total energy in the final basis set = -1510.27149251
   14   -1510.2850191623      3.45E-09 Convergence criterion met
 Total energy in the final basis set = -1510.28501916
   14   -1510.2842283594      6.05E-09 Convergence criterion met
 Total energy in the final basis set = -1510.28422836
   14   -1510.2855739700      4.43E-09 Convergence criterion met
 Total energy in the final basis set = -1510.28557397
   15   -1510.2849585458      2.19E-09 Convergence criterion met
 Total energy in the final basis set = -1510.28495855
   13   -1510.2856587103      8.66E-09 Convergence criterion met
 Total energy in the final basis set = -1510.28565871
   13   -1510.2858846824      7.94E-09 Convergence criterion met
    9   -1510.2923879281      7.17E-09 Convergence criterion met
 Total energy in the final basis set = -1510.29238793
   10   -1510.2924002106      8.86E-09 Convergence criterion met
 Total energy in the final basis set = -1510.29240021
    9   -1510.2923870002      7.50E-09 Convergence criterion met
 Total energy in the final basis set = -1510.29238700
   10   -1510.2923854371      6.91E-09 Convergence criterion met
 Total energy in the final basis set = -1510.29238544
    9   -1510.2923854282      2.39E-09 Convergence criterion met
 Total energy in the final basis set = -1510.29238543
    8   -1510.2923855365      9.32E-09 Convergence criterion met
 Total energy in the final basis set = -1510.29238554

             Standard Nuclear Orientation (Angstroms)
    I     Atom           X                Y                Z
 ----------------------------------------------------------------
    1      O       2.8039511247    -3.0637815729    -0.2188301050
    2      C       3.1600936373    -1.8984935342     0.0612647693
    3      C       3.0962300261    -0.6446603702    -0.8764135510
    4      C       2.1680251282     0.5161727708    -0.3238916033
    5      C       1.4120969045     0.1429966728     0.9953062521
    6      O       1.2762279109     1.2930123302     1.8298232195
    7      C       0.2635786498     1.0502878361     2.8841409663
    8      C      -0.9114260776     2.0920022110     2.7193566928
    9      O      -2.1562412805     1.5929110356     2.0818008000
   10      C      -1.9624039259     1.2468874622     0.7086455412
   11      C      -3.3598459998     1.0511465479     0.0267950106
   12      C      -3.2886993958     0.2527315596    -1.3417462794
   13      C      -1.8635690573    -0.3212591146    -1.6909614045
   14      O      -1.0863724431     0.0903524952    -2.5822926019
   15      O       3.7376250558    -1.5099956431     1.3137347773
   16      O      -1.6457561240    -1.4744354670    -0.8814115081
   17      O      -0.8491152282     1.1670317919     0.1445959872
   18      C      -0.3140119656    -2.0719908531    -1.1449487780
   19      C      -4.3757317954     0.1578558774     0.8614931238
   20      C      -5.8319157135     0.4503245170     0.3245458469
   21      C      -5.7916412700    -0.2870545028    -1.0652062451
   22      C      -4.3359870591    -0.9046768033    -1.0459041150
   23      O      -4.1073459707    -1.2160438577     0.3846385362
   24      H      -3.7808203703     2.0617802777    -0.1333540034
   25      H      -3.6049671028     0.8917000231    -2.1849090014
   26      H      -4.2450096761     0.2285968286     1.9585960766
   27      H      -6.5829916572     0.0052032675     0.9963675844
   28      H      -6.0356091000     1.5290307005     0.2314312875
   29      H      -6.5495563226    -1.0843491026    -1.1231123505
   30      H      -5.9365066521     0.4003568113    -1.9138635708
   31      H      -4.2014668725    -1.8129365156    -1.6641050705
   32      O       0.9434059633    -0.9848794321     1.2871770704
   33      C       3.7146831036    -2.6556192425     2.2499564168
   34      C       4.4872471554     0.1203491356    -0.9650245903
   35      C       4.4264405978     1.1151111052    -2.1920113198
   36      C       3.5216106794     2.2638286094    -1.6097457804
   37      C       3.2096955564     1.7009266835    -0.1677946562
   38      O       4.4642851373     1.0138051644     0.2146877350
   39      H       2.7554824325    -0.9900529547    -1.8679726598
   40      H       1.3805784736     0.7724168551    -1.0591206109
   41      H       4.2450956338    -3.5369101990     1.8353289152
   42      H       5.3765904256    -0.5383979591    -0.9352375731
   43      H       5.4348075754     1.4810398398    -2.4426686339
   44      H       3.9891296018     0.6421935710    -3.0859563287
   45      H       4.0721879101     3.2155351348    -1.5406186923
   46      H       2.6043645582     2.4256864902    -2.1984446914
   47      H       2.9256161197     2.4530209277     0.5928385931
   48      H       2.6732201497    -2.9520711167     2.4923704362
   49      H       4.2254094529    -2.3113655845     3.1678684304
   50      H       0.3288904565    -1.8839706312    -0.2547865428
   51      H       0.1320404014    -1.6115793951    -2.0483987370
   52      H      -0.4499882996    -3.1592873045    -1.2966116051
   53      H      -1.2436431350     2.4303792326     3.7215684850
   54      H      -0.5160319535     2.9683819227     2.1590041689
   55      H       0.7513436728     1.2041559406     3.8694599744
   56      H      -0.0962816911    -0.0000796560     2.8106044196
 ----------------------------------------------------------------

    8   -1510.2923855530      7.48E-09 Convergence criterion met
 Total energy in the final basis set = -1510.29238555
 Final energy is   -1510.29238555298
 **  OPTIMIZATION CONVERGED  **

                    Orbital Energies (a.u.)
 --------------------------------------------------------------

 Alpha MOs
 -- Occupied --
-18.946 -18.940 -18.924 -18.912 -18.889 -18.886 -18.883 -18.882
-18.864 -18.853 -10.113 -10.109 -10.090 -10.085 -10.084 -10.076
-10.059 -10.056 -10.056 -10.055 -10.054 -10.041 -10.034 -10.031
-10.030 -10.025 -10.019 -10.018 -10.015 -10.014  -1.027  -1.015
 -1.000  -0.992  -0.967  -0.965  -0.950  -0.942  -0.926  -0.917
 -0.762  -0.759  -0.728  -0.719  -0.714  -0.704  -0.695  -0.652
 -0.640  -0.621  -0.594  -0.580  -0.544  -0.542  -0.535  -0.533
 -0.513  -0.510  -0.486  -0.472  -0.466  -0.459  -0.448  -0.436
 -0.432  -0.428  -0.425  -0.408  -0.406  -0.404  -0.402  -0.400
 -0.390  -0.387  -0.378  -0.363  -0.359  -0.355  -0.346  -0.342
 -0.337  -0.335  -0.332  -0.327  -0.326  -0.320  -0.316  -0.314
 -0.306  -0.304  -0.300  -0.296  -0.294  -0.286  -0.282  -0.271
 -0.271  -0.262  -0.253  -0.243  -0.232  -0.230  -0.228  -0.194
 -0.178  -0.168  -0.166  -0.161  -0.148  -0.142  -0.141  -0.139
 -0.138

          Ground-State Mulliken Net Atomic Charges

     Atom                 Charge (a.u.)
  ----------------------------------------
      1 O                    -0.214912
      2 C                     0.209514
      3 C                    -0.080919
      4 C                    -0.078306
      5 C                     0.234170
      6 O                    -0.168657
      7 C                    -0.055031
      8 C                    -0.049455
      9 O                    -0.170858
     10 C                     0.217381
     11 C                    -0.078036
     12 C                    -0.080284
     13 C                     0.210728
     14 O                    -0.227506
     15 O                    -0.169738
     16 O                    -0.172710
     17 O                    -0.212733
     18 C                    -0.148846
     19 C                     0.024637
     20 C                    -0.143480
     21 C                    -0.144916
     22 C                     0.027418
     23 O                    -0.184575
     24 H                     0.084743
     25 H                     0.081739
     26 H                     0.088425
     27 H                     0.077818
     28 H                     0.072166
     29 H                     0.077620
     30 H                     0.072899
     31 H                     0.085915
     32 O                    -0.217867
     33 C                    -0.128610
     34 C                     0.026181
     35 C                    -0.144072
     36 C                    -0.143754
     37 C                     0.024177
     38 O                    -0.187868
     39 H                     0.085767
     40 H                     0.102253
     41 H                     0.088031
     42 H                     0.082427
     43 H                     0.076670
     44 H                     0.074906
     45 H                     0.076285
     46 H                     0.076515
     47 H                     0.090238
     48 H                     0.090459
     49 H                     0.088359
     50 H                     0.105636
     51 H                     0.087117
     52 H                     0.080859
     53 H                     0.092484
     54 H                     0.092820
     55 H                     0.088648
     56 H                     0.108129
  ----------------------------------------
  Sum of atomic charges =    -0.000000

                    Cartesian Multipole Moments
 -----------------------------------------------------------------
    Charge (ESU x 10^10)
                -0.0000
    Dipole Moment (Debye)
         X      -1.5092      Y       2.7394      Z       1.0565
       Tot       3.3013
    Quadrupole Moments (Debye-Ang)
        XX    -151.0664     XY      -6.5532     YY    -160.4593
        XZ      -0.5117     YZ       1.8441     ZZ    -152.4197

 Total job time:  113.33s(wall), 5404.58s(cpu)
        *  Thank you very much for using Q-Chem.  Have a nice day.  *
