 Q-Chem 5.0, Q-Chem, Inc., Pleasanton, CA (2017)
 Q-Chem 5.0.1 for Intel X86 EM64T Linux

User input:
--------------------------------------------------------------
$molecule
0  1
O 4.0655598547 -3.0116265616 -0.1497204495
C 4.0730636628 -1.8203138739 0.2288532538
C 4.4183244122 -0.5616834223 -0.646252946
C 3.2297296959 0.473838921 -0.7991877221
C 1.8981592237 -0.0086561829 -0.1272978624
O 1.0678328196 1.1171018893 0.1409199152
C -0.0256690418 0.741281173 1.0735477059
C -0.841677731 2.0542073714 1.3822542882
O -2.2928384795 1.7589635928 1.3171682962
C -2.6670372043 1.5399410458 -0.047896237
C -4.1878356004 1.1774725784 -0.1459419921
C -4.410767814 -0.1111107554 -1.0507791338
C -3.1084372855 -0.7363663431 -1.6676392349
O -2.8742777783 -0.8696184015 -2.8891339418
O 3.8740069056 -1.4024945652 1.5864069622
O -2.2295830803 -1.1890808371 -0.6233692593
O -1.8811194147 1.6604409531 -1.0137487089
C -1.0923383572 -1.9466156173 -1.2095328777
C -4.8233878533 0.7021459275 1.2242919841
C -6.3954196957 0.6856037246 1.0645998469
C -6.5998129156 -0.6119229334 0.1978033814
C -5.1055787666 -1.0844394565 0.0001795279
O -4.4593874636 -0.7323846712 1.2842888937
H -4.7219161424 2.0488315023 -0.5680915771
H -5.0833318079 0.1138487493 -1.8970425548
H -4.4362460469 1.2383421045 2.1112939166
H -6.8836692797 0.5968412721 2.047953476
H -6.7694205459 1.5932752737 0.5644427757
H -7.1738265683 -1.3765378712 0.7450760283
H -7.1034016994 -0.4108564371 -0.7612234752
H -4.9756886836 -2.1624926735 -0.2162386713
O 1.5723420629 -1.1941654433 0.1255532831
C 3.4763459897 -2.5648535827 2.4107546495
C 5.5092475808 0.3606040889 0.0542418921
C 6.0713490585 1.379818944 -1.0148723252
C 4.8807654485 2.405185184 -1.1173222037
C 3.8463379813 1.7648002132 -0.1113276169
O 4.704816476 1.2117216498 0.9602145459
H 4.7579852803 -0.9278390924 -1.630849292
H 3.0130126728 0.6679694675 -1.8667246851
H 4.2427719984 -3.366622773 2.3910012469
H 6.2779440979 -0.1943472896 0.6258878943
H 6.9889399916 1.8612738507 -0.6412067612
H 6.2957986337 0.8904659115 -1.9760971331
H 5.18088299 3.4084276444 -0.7750055534
H 4.4734316453 2.4859238778 -2.1377766304
H 3.0874884242 2.4541377607 0.3063744031
H 2.5115400407 -2.98939975 2.0645474247
H 3.364886479 -2.1841128753 3.4426189056
H -0.1784269661 -1.7273215417 -0.6146756775
H -0.9482584507 -1.6516058017 -2.2673787122
H -1.3103093364 -3.0327349902 -1.166147098
H -0.6533162629 2.4198545824 2.410066039
H -0.55417395 2.8358047307 0.645673153
H 0.3993349457 0.3009084682 2.0005286044
H -0.7102501196 -0.0069667447 0.6148647746
$end

$rem
JOBTYPE                   OPT
METHOD                    B3LYP
DFT_D                     d3_op
BASIS                     STO-3G
GEOM_OPT_MAX_CYCLES       100
GEOM_OPT_TOL_GRADIENT     300
GEOM_OPT_TOL_DISPLACEMENT 1200
GEOM_OPT_TOL_ENERGY       100
SYMMETRY                  False
THRESH                    12
SCF_CONVERGENCE           8
MAX_SUB_FILE_NUM          128
MEM_STATIC                400
MEM_TOTAL                 4000
$end
--------------------------------------------------------------

   16   -1510.2851498889      6.34E-09 Convergence criterion met
 Total energy in the final basis set = -1510.28514989
   15   -1510.2412832001      5.49E-09 Convergence criterion met
 Total energy in the final basis set = -1510.24128320
   14   -1510.2855778429      4.35E-09 Convergence criterion met
 Total energy in the final basis set = -1510.28557784
   14   -1510.2840425905      2.62E-09 Convergence criterion met
 Total energy in the final basis set = -1510.28404259
   14   -1510.2858453235      7.69E-09 Convergence criterion met
 Total energy in the final basis set = -1510.28584532
   14   -1510.2860199881      2.40E-09 Convergence criterion met
 Total energy in the final basis set = -1510.28601999
   13   -1510.2863274992      9.34E-09 Convergence criterion met
 Total energy in the final basis set = -1510.28632750
   13   -1510.2868482905      6.21E-09 Convergence criterion met
   11   -1510.2893596414      5.58E-09 Convergence criterion met
 Total energy in the final basis set = -1510.28935964
   10   -1510.2893741290      9.44E-09 Convergence criterion met
 Total energy in the final basis set = -1510.28937413
   11   -1510.2893991608      5.44E-09 Convergence criterion met
 Total energy in the final basis set = -1510.28939916
   12   -1510.2894350881      7.48E-09 Convergence criterion met
 Total energy in the final basis set = -1510.28943509
   11   -1510.2894804183      5.10E-09 Convergence criterion met
 Total energy in the final basis set = -1510.28948042
   10   -1510.2894925713      9.99E-09 Convergence criterion met
 Total energy in the final basis set = -1510.28949257

             Standard Nuclear Orientation (Angstroms)
    I     Atom           X                Y                Z
 ----------------------------------------------------------------
    1      O       3.5210427416    -2.9127789099    -0.6402174735
    2      C       3.7641127478    -1.8533442030    -0.0224692505
    3      C       4.3309702672    -0.5223318695    -0.6397377912
    4      C       3.2863595363     0.6683735298    -0.6993044693
    5      C       1.8774952090     0.2803331021    -0.1352036546
    6      O       1.1438187015     1.4673997596     0.1385912248
    7      C      -0.1948395737     1.1436978818     0.6983865407
    8      C      -1.0236121764     2.4771167899     0.7048170571
    9      O      -2.4577096029     2.1406728540     0.8659607231
   10      C      -2.9971611119     1.7240210128    -0.3951665648
   11      C      -4.3934127130     1.0397022430    -0.1846396737
   12      C      -4.4748114092    -0.3588487080    -0.9357672599
   13      C      -3.2138370232    -0.7604798848    -1.7804634940
   14      O      -3.1991661986    -0.9821397032    -3.0107624920
   15      O       3.6658198384    -1.7027064023     1.3998714806
   16      O      -2.0696152054    -0.9283546419    -0.9276223308
   17      O      -2.4117505922     1.8764350826    -1.4902288419
   18      C      -0.9366964332    -1.4726679129    -1.7187202588
   19      C      -4.6468703216     0.5927580276     1.3146913548
   20      C      -6.1699568218     0.2051144494     1.4776659344
   21      C      -6.2072138608    -1.1965498345     0.7640882756
   22      C      -4.7052174197    -1.3387621120     0.2976507126
   23      O      -3.9404437504    -0.7069265850     1.3956070277
   24      H      -5.1794847731     1.7253851901    -0.5517386001
   25      H      -5.3352389955    -0.3796354741    -1.6272370169
   26      H      -4.2474228559     1.2986881377     2.0671232084
   27      H      -6.4344292818     0.1238854669     2.5438757069
   28      H      -6.8379017567     0.9421799275     1.0040447825
   29      H      -6.4675352183    -2.0016344841     1.4695797527
   30      H      -6.9111394883    -1.2265960961    -0.0827966518
   31      H      -4.3580187525    -2.3767661061     0.1309577574
   32      O       1.4304995890    -0.8805820241     0.0275815168
   33      C       3.0565548707    -2.9161029502     1.9870884310
   34      C       5.4646579907     0.1342348091     0.2610416592
   35      C       6.2459841807     1.1934559321    -0.6130148614
   36      C       5.2035072573     2.3709777816    -0.6705458219
   37      C       4.0181143331     1.7679190442     0.1816180331
   38      O       4.7054489407     0.9689064345     1.2204324386
   39      H       4.7029747806    -0.7653587270    -1.6504945619
   40      H       3.1440860067     1.0236542983    -1.7371937305
   41      H       3.6463201992    -3.8268402730     1.7561028040
   42      H       6.1007713818    -0.5932543484     0.8007474597
   43      H       7.1740825574     1.5002986023    -0.1052538977
   44      H       6.5023194207     0.8014971319    -1.6102702835
   45      H       5.5962776332     3.2829865137    -0.1934676912
   46      H       4.8922390192     2.6159481083    -1.6986218825
   47      H       3.3315783763     2.5054969741     0.6404067632
   48      H       2.0208869721    -3.0617362994     1.6169625254
   49      H       3.0398218154    -2.7520003238     3.0802231656
   50      H      -0.0549141821    -1.4516637718    -1.0425162473
   51      H      -0.7396125530    -0.8517331224    -2.6154836598
   52      H      -1.1443743723    -2.5104937519    -2.0477115532
   53      H      -0.7531061069     3.1237733674     1.5623393405
   54      H      -0.8505624306     3.0210098705    -0.2489701611
   55      H      -0.0941886216     0.7343900914     1.7262643981
   56      H      -0.7346463993     0.3918294373     0.0773573114
 ----------------------------------------------------------------

   10   -1510.2894922134      7.45E-09 Convergence criterion met
 Total energy in the final basis set = -1510.28949221
 Final energy is   -1510.28949221343
 **  OPTIMIZATION CONVERGED  **

                    Orbital Energies (a.u.)
 --------------------------------------------------------------

 Alpha MOs
 -- Occupied --
-18.947 -18.940 -18.927 -18.920 -18.890 -18.888 -18.888 -18.881
-18.870 -18.859 -10.113 -10.106 -10.094 -10.089 -10.078 -10.071
-10.061 -10.060 -10.059 -10.059 -10.052 -10.043 -10.042 -10.041
-10.036 -10.033 -10.021 -10.021 -10.020 -10.020  -1.025  -1.018
 -1.003  -0.997  -0.970  -0.970  -0.949  -0.942  -0.929  -0.923
 -0.765  -0.763  -0.729  -0.723  -0.715  -0.707  -0.696  -0.651
 -0.650  -0.619  -0.597  -0.581  -0.546  -0.546  -0.538  -0.537
 -0.519  -0.511  -0.488  -0.476  -0.468  -0.462  -0.452  -0.443
 -0.434  -0.433  -0.429  -0.412  -0.406  -0.403  -0.403  -0.400
 -0.394  -0.386  -0.372  -0.369  -0.363  -0.352  -0.350  -0.346
 -0.340  -0.338  -0.334  -0.331  -0.330  -0.325  -0.321  -0.314
 -0.310  -0.307  -0.305  -0.301  -0.296  -0.291  -0.282  -0.274
 -0.273  -0.263  -0.257  -0.244  -0.242  -0.235  -0.234  -0.188
 -0.182  -0.170  -0.164  -0.163  -0.161  -0.147  -0.144  -0.144
 -0.139

          Ground-State Mulliken Net Atomic Charges

     Atom                 Charge (a.u.)
  ----------------------------------------
      1 O                    -0.218697
      2 C                     0.212503
      3 C                    -0.081378
      4 C                    -0.077958
      5 C                     0.221934
      6 O                    -0.170141
      7 C                    -0.055326
      8 C                    -0.048550
      9 O                    -0.170445
     10 C                     0.212909
     11 C                    -0.078358
     12 C                    -0.080167
     13 C                     0.209165
     14 O                    -0.210429
     15 O                    -0.171117
     16 O                    -0.175777
     17 O                    -0.213079
     18 C                    -0.142937
     19 C                     0.023477
     20 C                    -0.144671
     21 C                    -0.143708
     22 C                     0.025967
     23 O                    -0.188089
     24 H                     0.085847
     25 H                     0.085300
     26 H                     0.092137
     27 H                     0.078011
     28 H                     0.073110
     29 H                     0.078114
     30 H                     0.074179
     31 H                     0.084163
     32 O                    -0.211614
     33 C                    -0.128028
     34 C                     0.026676
     35 C                    -0.144320
     36 C                    -0.143806
     37 C                     0.024435
     38 O                    -0.187082
     39 H                     0.083522
     40 H                     0.087340
     41 H                     0.086247
     42 H                     0.085358
     43 H                     0.077851
     44 H                     0.073930
     45 H                     0.078004
     46 H                     0.073497
     47 H                     0.088452
     48 H                     0.091694
     49 H                     0.087576
     50 H                     0.106661
     51 H                     0.086526
     52 H                     0.082675
     53 H                     0.091133
     54 H                     0.099425
     55 H                     0.089669
     56 H                     0.108191
  ----------------------------------------
  Sum of atomic charges =    -0.000000

                    Cartesian Multipole Moments
 -----------------------------------------------------------------
    Charge (ESU x 10^10)
                -0.0000
    Dipole Moment (Debye)
         X      -0.6211      Y       1.9732      Z       0.9692
       Tot       2.2844
    Quadrupole Moments (Debye-Ang)
        XX    -139.1089     XY       3.2303     YY    -158.6375
        XZ      -9.3816     YZ      -3.4460     ZZ    -167.7412

 Total job time:  85.32s(wall), 4062.94s(cpu)
        *  Thank you very much for using Q-Chem.  Have a nice day.  *
