 Q-Chem 5.0, Q-Chem, Inc., Pleasanton, CA (2017)
 Q-Chem 5.0.1 for Intel X86 EM64T Linux

User input:
--------------------------------------------------------------
$molecule
0  1
O -3.94934 -3.66094 2.70899
C -3.26408 -4.56952 2.26188
C -3.36658 -6.02376 2.66595
C -3.75631 -7.03121 1.57187
C -3.82652 -6.49794 0.15809
O -3.69919 -7.52571 -0.73236
C -3.42863 -7.08424 -2.06696
C -3.22048 -8.28394 -2.9854
O -3.92969 -8.08519 -4.21844
C -5.28083 -8.16469 -4.13333
C -5.96985 -7.90204 -5.45125
C -7.12818 -6.89585 -5.3869
C -7.19848 -6.04852 -4.13238
O -8.13409 -6.02284 -3.34591
O -2.26622 -4.25375 1.39027
O -6.12257 -5.25783 -3.87015
O -5.88326 -8.57769 -3.14919
C -6.05203 -4.36596 -2.81964
C -5.12491 -7.27075 -6.58507
C -5.74963 -7.60585 -7.94034
C -6.99258 -6.73923 -7.90607
C -6.77487 -5.99737 -6.58376
O -5.37364 -5.8897 -6.48248
H -6.33739 -8.89707 -5.78998
H -8.11575 -7.39855 -5.49017
H -4.05805 -7.57967 -6.58781
H -5.06471 -7.20817 -8.72354
H -5.92862 -8.68635 -8.12827
H -6.95047 -6.03046 -8.76279
H -7.95762 -7.29083 -7.91476
H -7.34206 -5.04044 -6.57086
O -4.01637 -5.33437 -0.17231
C -1.99609 -2.97751 0.94244
C -2.01595 -6.56894 3.14778
C -2.23117 -7.7926 4.03555
C -2.63662 -8.81629 3.0
C -2.52869 -7.97949 1.72055
O -1.45361 -7.11215 1.98317
H -4.11103 -6.05508 3.49347
H -4.69153 -7.6009 1.76772
H -1.73541 -2.31876 1.79816
H -1.40513 -5.8068 3.68036
H -1.24512 -8.08758 4.46036
H -2.95934 -7.63595 4.86038
H -1.86514 -9.61877 2.98401
H -3.64336 -9.26596 3.13917
H -2.38324 -8.67104 0.8636
H -2.87743 -2.56611 0.40547
H -1.13594 -3.01251 0.24294
H -5.06245 -3.86488 -2.83317
H -6.1719 -4.89998 -1.85317
H -6.8459 -3.59546 -2.91983
H -2.13437 -8.42696 -3.16785
H -3.5817 -9.22484 -2.50988
H -2.54814 -6.40503 -2.1316
H -4.31574 -6.51002 -2.40049
$end

$opt
CONSTRAINT
tors           1           2           3           4    +118.005
tors           3           4           5           6    +158.247
tors           4           5           6           7    -165.637
tors           5           6           7           8    +176.760
tors           6           7           8           9    +135.760
tors           7           8           9          10     -71.156
tors           8           9          10          11    +178.100
tors           9          10          11          12    -131.325
tors          11          12          13          14    -119.871
ENDCONSTRAINT
$end

$rem
JOBTYPE                   OPT
METHOD                    B3LYP
DFT_D                     d3_op
BASIS                     STO-3G
GEOM_OPT_MAX_CYCLES       100
GEOM_OPT_TOL_GRADIENT     300
GEOM_OPT_TOL_DISPLACEMENT 1200
GEOM_OPT_TOL_ENERGY       100
SYMMETRY                  False
THRESH                    12
SCF_CONVERGENCE           8
MAX_SUB_FILE_NUM          128
MEM_STATIC                400
MEM_TOTAL                 4000
$end
--------------------------------------------------------------

   15   -1510.1549212939      8.71E-09 Convergence criterion met
 Total energy in the final basis set = -1510.15492129
   13   -1510.2238314082      9.96E-09 Convergence criterion met
 Total energy in the final basis set = -1510.22383141
   14   -1510.2604290730      1.95E-09 Convergence criterion met
 Total energy in the final basis set = -1510.26042907
   13   -1510.2758574887      9.66E-09 Convergence criterion met
 Total energy in the final basis set = -1510.27585749
   14   -1510.2800950813      4.97E-09 Convergence criterion met
 Total energy in the final basis set = -1510.28009508
    2   -1510.2800950814      2.72E-09 Convergence criterion met
 Total energy in the final basis set = -1510.28009508
   13   -1510.2805213420      8.47E-09 Convergence criterion met
 Total energy in the final basis set = -1510.28052134
   13   -1510.2822384586      4.17E-09 Convergence criterion met
   11   -1510.2851304841      9.09E-09 Convergence criterion met
 Total energy in the final basis set = -1510.28513048
   11   -1510.2851391663      4.65E-09 Convergence criterion met
 Total energy in the final basis set = -1510.28513917
   12   -1510.2851488598      5.31E-09 Convergence criterion met
 Total energy in the final basis set = -1510.28514886
   10   -1510.2851647558      3.45E-09 Convergence criterion met
 Total energy in the final basis set = -1510.28516476
    9   -1510.2851691020      8.67E-09 Convergence criterion met
 Total energy in the final basis set = -1510.28516910
    9   -1510.2851706644      3.57E-09 Convergence criterion met
 Total energy in the final basis set = -1510.28517066

             Standard Nuclear Orientation (Angstroms)
    I     Atom           X                Y                Z
 ----------------------------------------------------------------
    1      O       4.0655598547    -3.0116265616    -0.1497204495
    2      C       4.0730636628    -1.8203138739     0.2288532538
    3      C       4.4183244122    -0.5616834223    -0.6462529460
    4      C       3.2297296959     0.4738389210    -0.7991877221
    5      C       1.8981592237    -0.0086561829    -0.1272978624
    6      O       1.0678328196     1.1171018893     0.1409199152
    7      C      -0.0256690418     0.7412811730     1.0735477059
    8      C      -0.8416777310     2.0542073714     1.3822542882
    9      O      -2.2928384795     1.7589635928     1.3171682962
   10      C      -2.6670372043     1.5399410458    -0.0478962370
   11      C      -4.1878356004     1.1774725784    -0.1459419921
   12      C      -4.4107678140    -0.1111107554    -1.0507791338
   13      C      -3.1084372855    -0.7363663431    -1.6676392349
   14      O      -2.8742777783    -0.8696184015    -2.8891339418
   15      O       3.8740069056    -1.4024945652     1.5864069622
   16      O      -2.2295830803    -1.1890808371    -0.6233692593
   17      O      -1.8811194147     1.6604409531    -1.0137487089
   18      C      -1.0923383572    -1.9466156173    -1.2095328777
   19      C      -4.8233878533     0.7021459275     1.2242919841
   20      C      -6.3954196957     0.6856037246     1.0645998469
   21      C      -6.5998129156    -0.6119229334     0.1978033814
   22      C      -5.1055787666    -1.0844394565     0.0001795279
   23      O      -4.4593874636    -0.7323846712     1.2842888937
   24      H      -4.7219161424     2.0488315023    -0.5680915771
   25      H      -5.0833318079     0.1138487493    -1.8970425548
   26      H      -4.4362460469     1.2383421045     2.1112939166
   27      H      -6.8836692797     0.5968412721     2.0479534760
   28      H      -6.7694205459     1.5932752737     0.5644427757
   29      H      -7.1738265683    -1.3765378712     0.7450760283
   30      H      -7.1034016994    -0.4108564371    -0.7612234752
   31      H      -4.9756886836    -2.1624926735    -0.2162386713
   32      O       1.5723420629    -1.1941654433     0.1255532831
   33      C       3.4763459897    -2.5648535827     2.4107546495
   34      C       5.5092475808     0.3606040889     0.0542418921
   35      C       6.0713490585     1.3798189440    -1.0148723252
   36      C       4.8807654485     2.4051851840    -1.1173222037
   37      C       3.8463379813     1.7648002132    -0.1113276169
   38      O       4.7048164760     1.2117216498     0.9602145459
   39      H       4.7579852803    -0.9278390924    -1.6308492920
   40      H       3.0130126728     0.6679694675    -1.8667246851
   41      H       4.2427719984    -3.3666227730     2.3910012469
   42      H       6.2779440979    -0.1943472896     0.6258878943
   43      H       6.9889399916     1.8612738507    -0.6412067612
   44      H       6.2957986337     0.8904659115    -1.9760971331
   45      H       5.1808829900     3.4084276444    -0.7750055534
   46      H       4.4734316453     2.4859238778    -2.1377766304
   47      H       3.0874884242     2.4541377607     0.3063744031
   48      H       2.5115400407    -2.9893997500     2.0645474247
   49      H       3.3648864790    -2.1841128753     3.4426189056
   50      H      -0.1784269661    -1.7273215417    -0.6146756775
   51      H      -0.9482584507    -1.6516058017    -2.2673787122
   52      H      -1.3103093364    -3.0327349902    -1.1661470980
   53      H      -0.6533162629     2.4198545824     2.4100660390
   54      H      -0.5541739500     2.8358047307     0.6456731530
   55      H       0.3993349457     0.3009084682     2.0005286044
   56      H      -0.7102501196    -0.0069667447     0.6148647746
 ----------------------------------------------------------------

    9   -1510.2851716410      3.40E-09 Convergence criterion met
 Total energy in the final basis set = -1510.28517164
 Final energy is   -1510.28517164100
 **  OPTIMIZATION CONVERGED  **

                    Orbital Energies (a.u.)
 --------------------------------------------------------------

 Alpha MOs
 -- Occupied --
-18.944 -18.941 -18.924 -18.921 -18.888 -18.888 -18.888 -18.877
-18.870 -18.862 -10.111 -10.104 -10.093 -10.090 -10.079 -10.073
-10.060 -10.060 -10.059 -10.059 -10.054 -10.041 -10.040 -10.039
-10.036 -10.034 -10.021 -10.021 -10.020 -10.019  -1.024  -1.017
 -1.001  -0.999  -0.970  -0.970  -0.946  -0.941  -0.928  -0.924
 -0.764  -0.763  -0.729  -0.722  -0.715  -0.706  -0.696  -0.652
 -0.648  -0.619  -0.597  -0.583  -0.546  -0.545  -0.538  -0.537
 -0.518  -0.511  -0.489  -0.473  -0.468  -0.461  -0.447  -0.443
 -0.433  -0.433  -0.430  -0.412  -0.408  -0.404  -0.403  -0.400
 -0.391  -0.384  -0.371  -0.368  -0.363  -0.353  -0.350  -0.346
 -0.343  -0.338  -0.336  -0.330  -0.330  -0.324  -0.321  -0.315
 -0.308  -0.305  -0.304  -0.301  -0.295  -0.290  -0.282  -0.276
 -0.272  -0.261  -0.257  -0.243  -0.240  -0.234  -0.234  -0.184
 -0.183  -0.169  -0.165  -0.161  -0.159  -0.148  -0.144  -0.143
 -0.141

          Ground-State Mulliken Net Atomic Charges

     Atom                 Charge (a.u.)
  ----------------------------------------
      1 O                    -0.216339
      2 C                     0.212098
      3 C                    -0.080722
      4 C                    -0.078143
      5 C                     0.221408
      6 O                    -0.168468
      7 C                    -0.051327
      8 C                    -0.047805
      9 O                    -0.168815
     10 C                     0.212106
     11 C                    -0.078418
     12 C                    -0.079472
     13 C                     0.209518
     14 O                    -0.212007
     15 O                    -0.171558
     16 O                    -0.176132
     17 O                    -0.213732
     18 C                    -0.147029
     19 C                     0.023503
     20 C                    -0.144431
     21 C                    -0.143767
     22 C                     0.026045
     23 O                    -0.187226
     24 H                     0.085842
     25 H                     0.085045
     26 H                     0.091630
     27 H                     0.077886
     28 H                     0.072846
     29 H                     0.078012
     30 H                     0.074049
     31 H                     0.083681
     32 O                    -0.212110
     33 C                    -0.128385
     34 C                     0.026632
     35 C                    -0.144442
     36 C                    -0.143565
     37 C                     0.024322
     38 O                    -0.187284
     39 H                     0.084526
     40 H                     0.088196
     41 H                     0.086851
     42 H                     0.084053
     43 H                     0.077823
     44 H                     0.074193
     45 H                     0.077894
     46 H                     0.074067
     47 H                     0.088895
     48 H                     0.091231
     49 H                     0.087198
     50 H                     0.101105
     51 H                     0.095218
     52 H                     0.079368
     53 H                     0.092464
     54 H                     0.098972
     55 H                     0.088511
     56 H                     0.105990
  ----------------------------------------
  Sum of atomic charges =    -0.000000

                    Cartesian Multipole Moments
 -----------------------------------------------------------------
    Charge (ESU x 10^10)
                 0.0000
    Dipole Moment (Debye)
         X      -0.8732      Y       2.3043      Z       0.8362
       Tot       2.6022
    Quadrupole Moments (Debye-Ang)
        XX    -140.9514     XY       1.7386     YY    -160.6872
        XZ      -5.2221     YZ      -1.9963     ZZ    -163.6368

 Total job time:  83.53s(wall), 3976.32s(cpu)
        *  Thank you very much for using Q-Chem.  Have a nice day.  *
