 Q-Chem 5.0, Q-Chem, Inc., Pleasanton, CA (2017)
 Q-Chem 5.0.1 for Intel X86 EM64T Linux

User input:
--------------------------------------------------------------
$molecule
0  1
O 4.2284128821 -2.9508071184 -0.1450310293
C 4.1540818444 -1.7554494344 0.2120351046
C 4.4361441366 -0.4894218351 -0.6708216953
C 3.1784419354 0.4591923061 -0.8578633113
C 1.8872582421 -0.1014743829 -0.1633808824
O 1.0825727356 0.9706601147 0.311148268
C 0.02337679 0.4615805747 1.2206649634
C -0.8108446471 1.7076407486 1.7017044638
O -2.255813594 1.4520113753 1.4946940619
C -2.5478654561 1.4813102288 0.0921305896
C -4.0717460747 1.2035833582 -0.1468724209
C -4.3127741031 -0.0451819057 -1.1005945597
C -3.0422554152 -0.8008337761 -1.6250988931
O -2.8374497133 -1.1100662609 -2.8207467702
O 3.8545131263 -1.3277012875 1.5480708981
O -2.1850585544 -1.1902188646 -0.5390549447
O -1.7012463094 1.7405023484 -0.7908957392
C -1.1462824133 -2.1365287996 -1.0323718029
C -4.8594256665 0.7533097003 1.1513175434
C -6.4076654658 0.8694290724 0.8619553637
C -6.6407914043 -0.3836311702 -0.0607798964
C -5.1795026453 -0.9779254597 -0.1401300567
O -4.6213333914 -0.7081787555 1.2031838661
H -4.5090177243 2.1141915021 -0.5968581492
H -4.89078421 0.2490994833 -1.9941245448
H -4.5091456571 1.2362207118 2.0828522561
H -6.9815655151 0.7928736333 1.7991099116
H -6.6679653285 1.8180274888 0.3658569611
H -7.3243945774 -1.1093600955 0.4079339911
H -7.0360064485 -0.1163722513 -1.0538139497
H -5.1215469007 -2.0585860109 -0.3746116141
O 1.5799209445 -1.3136552679 -0.0476382762
C 3.4775425337 -2.4965024937 2.3730985411
C 5.4505557981 0.5166882342 0.0293203174
C 5.9731855865 1.5359955114 -1.0590342357
C 4.7196593086 2.4733489933 -1.2263036462
C 3.7069587051 1.8081930042 -0.2137101771
O 4.5761996204 1.3439523037 0.8913462046
H 4.816607031 -0.8439932027 -1.6446442694
H 2.9490794464 0.5962400727 -1.9316015645
H 4.2750193197 -3.2672485061 2.3867881208
H 6.2381665461 0.0265230112 0.6336146258
H 6.8449461261 2.0910279544 -0.6777569541
H 6.2574447369 1.032448648 -1.9967583387
H 4.9450204972 3.5076756878 -0.9215875599
H 4.3296890496 2.4850300652 -2.2567050597
H 2.9022402822 2.464956538 0.1682818452
H 2.5422861269 -2.9623139837 1.9994973699
H 3.3163633887 -2.1103803135 3.3963414093
H -0.1569138635 -1.8450642025 -0.6118303202
H -1.1263754978 -2.1099114332 -2.1393614372
H -1.4068034373 -3.1586361008 -0.6929006914
H -0.6917781527 1.8824128056 2.7885399019
H -0.4739620946 2.604460589 1.1375713409
H 0.4859378865 -0.0739250727 2.0769025003
H -0.6643739978 -0.2380363024 0.6949135308
$end

$rem
JOBTYPE                   OPT
METHOD                    B3LYP
DFT_D                     d3_op
BASIS                     STO-3G
GEOM_OPT_MAX_CYCLES       100
GEOM_OPT_TOL_GRADIENT     300
GEOM_OPT_TOL_DISPLACEMENT 1200
GEOM_OPT_TOL_ENERGY       100
SYMMETRY                  False
THRESH                    12
SCF_CONVERGENCE           8
MAX_SUB_FILE_NUM          128
MEM_STATIC                400
MEM_TOTAL                 4000
$end
--------------------------------------------------------------

   16   -1510.2856605094      5.58E-09 Convergence criterion met
 Total energy in the final basis set = -1510.28566051
   15   -1510.2220951437      5.27E-09 Convergence criterion met
 Total energy in the final basis set = -1510.22209514
   14   -1510.2860448291      6.27E-09 Convergence criterion met
 Total energy in the final basis set = -1510.28604483
   14   -1510.2847798276      6.30E-09 Convergence criterion met
 Total energy in the final basis set = -1510.28477983
   15   -1510.2846947387      2.52E-09 Convergence criterion met
 Total energy in the final basis set = -1510.28469474
   13   -1510.2860250399      5.56E-09 Convergence criterion met
 Total energy in the final basis set = -1510.28602504
   14   -1510.2852861144      5.63E-09 Convergence criterion met
 Total energy in the final basis set = -1510.28528611
   13   -1510.2861592546      9.74E-09 Convergence criterion met
   12   -1510.2911965910      8.48E-09 Convergence criterion met
 Total energy in the final basis set = -1510.29119659
   12   -1510.2912786375      9.95E-09 Convergence criterion met
 Total energy in the final basis set = -1510.29127864
   11   -1510.2913049617      7.76E-09 Convergence criterion met
 Total energy in the final basis set = -1510.29130496
   11   -1510.2913166299      9.73E-09 Convergence criterion met
 Total energy in the final basis set = -1510.29131663
   10   -1510.2913190693      8.70E-09 Convergence criterion met
 Total energy in the final basis set = -1510.29131907
   10   -1510.2913238269      6.68E-09 Convergence criterion met
 Total energy in the final basis set = -1510.29132383

             Standard Nuclear Orientation (Angstroms)
    I     Atom           X                Y                Z
 ----------------------------------------------------------------
    1      O       2.4298561439    -1.8707317883    -1.5066539016
    2      C       3.2154062437    -1.4037371888    -0.6524148725
    3      C       4.0926093175    -0.1046469061    -0.8152635503
    4      C       3.3716932079     1.2256148493    -0.3423599659
    5      C       1.9497100435     0.9740851625     0.2495244769
    6      O       1.2716922025     2.2217045979     0.3760119051
    7      C      -0.1165164301     2.0184763178     0.8699875313
    8      C      -1.1276600867     2.4499956673    -0.2492488260
    9      O      -2.4649727927     1.9220620214     0.1085537600
   10      C      -3.0291828702     1.2071490056    -1.0001783853
   11      C      -4.4133811337     0.5858764488    -0.5840836112
   12      C      -4.4220862867    -1.0018712507    -0.6660334025
   13      C      -3.0741710108    -1.6364189842    -1.1471675205
   14      O      -2.9339871424    -2.5093901236    -2.0312466079
   15      O       3.5339330547    -2.0437007048     0.5880200140
   16      O      -2.0011108912    -1.0705681160    -0.3910515923
   17      O      -2.4995775144     1.1456192792    -2.1320940007
   18      C      -0.7021505633    -1.5998621654    -0.8723469139
   19      C      -4.7777050655     0.8096830697     0.9407356745
   20      C      -6.3088027609     0.4734378290     1.1451993204
   21      C      -6.2866082944    -1.0996029025     1.0965328565
   22      C      -4.7508609750    -1.3710691753     0.8482016657
   23      O      -4.0801224956    -0.3047181660     1.6233560568
   24      H      -5.1836331964     1.0089551995    -1.2551330605
   25      H      -5.2156769890    -1.3615600259    -1.3441112517
   26      H      -4.4456625747     1.7825110004     1.3490115368
   27      H      -6.6574568377     0.8428813452     2.1226928546
   28      H      -6.9389611534     0.9142563313     0.3562957672
   29      H      -6.6037850220    -1.5383165691     2.0560377882
   30      H      -6.9177838495    -1.5120093025     0.2932229046
   31      H      -4.3903163274    -2.3685797802     1.1665461505
   32      O       1.4611125722    -0.1327317357     0.5838947898
   33      C       2.6728075811    -3.2324919288     0.7726222315
   34      C       5.3799688730    -0.0891564753     0.1125776984
   35      C       6.3740863899     1.0096671363    -0.4354582724
   36      C       5.6577626818     2.3300812913     0.0331264889
   37      C       4.3900576103     1.7426473843     0.7696931072
   38      O       4.8861839554     0.4929969702     1.3835308713
   39      H       4.3616575485    -0.0293699129    -1.8839954688
   40      H       3.2786021127     1.9600436959    -1.1622669074
   41      H       2.7504645324    -3.9332968301    -0.0836109067
   42      H       5.8250261601    -1.0860747918     0.2924818266
   43      H       7.3648724600     0.9000155969     0.0333929370
   44      H       6.4922331672     0.9540666339    -1.5293618655
   45      H       6.2813423539     2.9005405034     0.7398277023
   46      H       5.3820323768     2.9884082356    -0.8061637888
   47      H       3.9354014269     2.4043432623     1.5324718112
   48      H       1.6100416122    -2.9403165655     0.8956571272
   49      H       3.0284802346    -3.7281188630     1.6945213454
   50      H       0.0839250749    -1.0846355877    -0.2805568254
   51      H      -0.5580588387    -1.3888485546    -1.9508789932
   52      H      -0.6322988831    -2.6952842843    -0.7187357951
   53      H      -1.1797042023     3.5567612016    -0.3256735697
   54      H      -0.8334878574     2.0330601764    -1.2382974619
   55      H      -0.2476551710     2.6365585567     1.7816574570
   56      H      -0.2618085325     0.9458014220     1.1210309328
 ----------------------------------------------------------------

    9   -1510.2913236649      7.12E-09 Convergence criterion met
 Total energy in the final basis set = -1510.29132366
 Final energy is   -1510.29132366492
 **  OPTIMIZATION CONVERGED  **

                    Orbital Energies (a.u.)
 --------------------------------------------------------------

 Alpha MOs
 -- Occupied --
-18.950 -18.933 -18.924 -18.924 -18.897 -18.891 -18.885 -18.871
-18.866 -18.859 -10.117 -10.100 -10.092 -10.090 -10.074 -10.069
-10.066 -10.060 -10.058 -10.056 -10.055 -10.046 -10.038 -10.037
-10.036 -10.033 -10.024 -10.021 -10.019 -10.018  -1.028  -1.012
 -1.000  -0.999  -0.973  -0.967  -0.952  -0.935  -0.926  -0.925
 -0.767  -0.760  -0.730  -0.722  -0.715  -0.706  -0.695  -0.653
 -0.645  -0.618  -0.596  -0.579  -0.548  -0.543  -0.539  -0.535
 -0.518  -0.509  -0.486  -0.477  -0.466  -0.464  -0.455  -0.438
 -0.436  -0.431  -0.427  -0.411  -0.409  -0.404  -0.400  -0.399
 -0.396  -0.381  -0.373  -0.367  -0.364  -0.353  -0.348  -0.347
 -0.341  -0.336  -0.335  -0.330  -0.328  -0.328  -0.317  -0.315
 -0.308  -0.305  -0.303  -0.301  -0.292  -0.289  -0.281  -0.279
 -0.271  -0.261  -0.248  -0.245  -0.240  -0.236  -0.231  -0.194
 -0.172  -0.172  -0.166  -0.165  -0.157  -0.148  -0.142  -0.141
 -0.141

          Ground-State Mulliken Net Atomic Charges

     Atom                 Charge (a.u.)
  ----------------------------------------
      1 O                    -0.223281
      2 C                     0.212882
      3 C                    -0.081072
      4 C                    -0.078203
      5 C                     0.221206
      6 O                    -0.168996
      7 C                    -0.054966
      8 C                    -0.053712
      9 O                    -0.171010
     10 C                     0.217301
     11 C                    -0.077433
     12 C                    -0.079923
     13 C                     0.208344
     14 O                    -0.211961
     15 O                    -0.167840
     16 O                    -0.173340
     17 O                    -0.219960
     18 C                    -0.141131
     19 C                     0.024544
     20 C                    -0.144663
     21 C                    -0.143652
     22 C                     0.025923
     23 O                    -0.186860
     24 H                     0.084213
     25 H                     0.084566
     26 H                     0.090467
     27 H                     0.077173
     28 H                     0.072606
     29 H                     0.077492
     30 H                     0.073987
     31 H                     0.082934
     32 O                    -0.209036
     33 C                    -0.127371
     34 C                     0.026313
     35 C                    -0.144431
     36 C                    -0.143399
     37 C                     0.026069
     38 O                    -0.186141
     39 H                     0.084012
     40 H                     0.088865
     41 H                     0.087445
     42 H                     0.089704
     43 H                     0.078440
     44 H                     0.074058
     45 H                     0.078855
     46 H                     0.074262
     47 H                     0.084903
     48 H                     0.091102
     49 H                     0.088579
     50 H                     0.105669
     51 H                     0.089070
     52 H                     0.082897
     53 H                     0.083138
     54 H                     0.102113
     55 H                     0.089379
     56 H                     0.109869
  ----------------------------------------
  Sum of atomic charges =     0.000000

                    Cartesian Multipole Moments
 -----------------------------------------------------------------
    Charge (ESU x 10^10)
                 0.0000
    Dipole Moment (Debye)
         X       0.3526      Y       2.3773      Z       0.7233
       Tot       2.5098
    Quadrupole Moments (Debye-Ang)
        XX    -136.7119     XY       0.8600     YY    -153.8520
        XZ      -8.6195     YZ      -4.9763     ZZ    -170.3752

 Total job time:  200.43s(wall), 9561.72s(cpu)
        *  Thank you very much for using Q-Chem.  Have a nice day.  *
