 Q-Chem 5.0, Q-Chem, Inc., Pleasanton, CA (2017)
 Q-Chem 5.0.1 for Intel X86 EM64T Linux

User input:
--------------------------------------------------------------
$molecule
0  1
O -3.94934 -3.66094 2.70899
C -3.26408 -4.56952 2.26188
C -3.36658 -6.02376 2.66595
C -3.75967 -7.03076 1.57266
C -3.83298 -6.49719 0.15914
O -3.46505 -7.47164 -0.72432
C -3.23594 -6.97502 -2.04724
C -2.82389 -8.11517 -2.97266
O -3.63452 -8.10052 -4.15822
C -4.92634 -8.47559 -3.98599
C -5.72748 -8.43115 -5.26539
C -6.97606 -7.53843 -5.21662
C -7.047 -6.56426 -4.05788
O -8.01157 -6.40493 -3.32386
O -2.32888 -4.27327 1.31924
O -6.00267 -5.70249 -3.92677
O -5.39049 -8.89221 -2.93118
C -6.00193 -4.60868 -3.08515
C -5.02325 -7.8504 -6.51665
C -5.69885 -8.37923 -7.78291
C -7.01022 -7.62235 -7.74443
C -6.77984 -6.7366 -6.51658
O -5.39264 -6.49431 -6.52887
H -6.0001 -9.48955 -5.47722
H -7.92376 -8.12164 -5.21595
H -3.93452 -8.06561 -6.56768
H -5.10533 -8.0118 -8.65086
H -5.78979 -9.48497 -7.84551
H -7.08344 -6.99941 -8.66358
H -7.92039 -8.25134 -7.63708
H -7.43275 -5.83653 -6.55617
O -4.47915 -5.50693 -0.15786
C -2.10189 -3.00951 0.8166
C -2.01731 -6.59197 3.13623
C -2.25085 -7.77678 4.06872
C -2.74694 -8.81196 3.08378
C -2.59477 -8.04155 1.76548
O -1.48606 -7.20569 1.98841
H -4.09795 -6.05512 3.50571
H -4.74922 -7.49615 1.77757
H -1.79508 -2.32195 1.63351
H -1.37134 -5.83339 3.6308
H -1.25393 -8.09626 4.44881
H -2.92533 -7.5777 4.92918
H -2.05099 -9.68009 3.11162
H -3.79118 -9.15843 3.24175
H -2.48737 -8.77924 0.94266
H -3.02008 -2.62368 0.3242
H -1.28755 -3.05846 0.06504
H -5.02203 -4.09363 -3.15666
H -6.16783 -4.92998 -2.03636
H -6.8025 -3.89895 -3.38401
H -1.7544 -7.99079 -3.24548
H -2.90754 -9.10744 -2.47261
H -2.45897 -6.17707 -2.05981
H -4.1761 -6.52342 -2.41283
$end

$opt
CONSTRAINT
tors           1           2           3           4    +117.859
tors           3           4           5           6    +147.108
tors           4           5           6           7    -167.607
tors           5           6           7           8    +179.731
tors           6           7           8           9    +129.266
tors           7           8           9          10     -71.156
tors           8           9          10          11    +179.642
tors           9          10          11          12    -122.890
tors          11          12          13          14    -131.257
ENDCONSTRAINT
$end

$rem
JOBTYPE                   OPT
METHOD                    B3LYP
DFT_D                     d3_op
BASIS                     STO-3G
GEOM_OPT_MAX_CYCLES       100
GEOM_OPT_TOL_GRADIENT     300
GEOM_OPT_TOL_DISPLACEMENT 1200
GEOM_OPT_TOL_ENERGY       100
SYMMETRY                  False
THRESH                    12
SCF_CONVERGENCE           8
MAX_SUB_FILE_NUM          128
MEM_STATIC                400
MEM_TOTAL                 4000
$end
--------------------------------------------------------------

   15   -1510.1521936425      7.65E-09 Convergence criterion met
 Total energy in the final basis set = -1510.15219364
   14   -1510.2215346773      5.97E-09 Convergence criterion met
 Total energy in the final basis set = -1510.22153468
   14   -1510.2586745668      6.73E-09 Convergence criterion met
 Total energy in the final basis set = -1510.25867457
   14   -1510.2743113640      4.89E-09 Convergence criterion met
 Total energy in the final basis set = -1510.27431136
   14   -1510.2762630650      4.76E-09 Convergence criterion met
 Total energy in the final basis set = -1510.27626307
   14   -1510.2798714433      5.48E-09 Convergence criterion met
 Total energy in the final basis set = -1510.27987144
   12   -1510.2811548724      9.31E-09 Convergence criterion met
 Total energy in the final basis set = -1510.28115487
   13   -1510.2819066172      2.79E-09 Convergence criterion met
   12   -1510.2856277213      4.49E-09 Convergence criterion met
 Total energy in the final basis set = -1510.28562772
    9   -1510.2856375640      9.31E-09 Convergence criterion met
 Total energy in the final basis set = -1510.28563756
   10   -1510.2856442744      9.78E-09 Convergence criterion met
 Total energy in the final basis set = -1510.28564427
    9   -1510.2856487318      7.92E-09 Convergence criterion met
 Total energy in the final basis set = -1510.28564873
    9   -1510.2856537423      4.89E-09 Convergence criterion met
 Total energy in the final basis set = -1510.28565374
    9   -1510.2856566359      5.32E-09 Convergence criterion met
 Total energy in the final basis set = -1510.28565664

             Standard Nuclear Orientation (Angstroms)
    I     Atom           X                Y                Z
 ----------------------------------------------------------------
    1      O       4.2284128821    -2.9508071184    -0.1450310293
    2      C       4.1540818444    -1.7554494344     0.2120351046
    3      C       4.4361441366    -0.4894218351    -0.6708216953
    4      C       3.1784419354     0.4591923061    -0.8578633113
    5      C       1.8872582421    -0.1014743829    -0.1633808824
    6      O       1.0825727356     0.9706601147     0.3111482680
    7      C       0.0233767900     0.4615805747     1.2206649634
    8      C      -0.8108446471     1.7076407486     1.7017044638
    9      O      -2.2558135940     1.4520113753     1.4946940619
   10      C      -2.5478654561     1.4813102288     0.0921305896
   11      C      -4.0717460747     1.2035833582    -0.1468724209
   12      C      -4.3127741031    -0.0451819057    -1.1005945597
   13      C      -3.0422554152    -0.8008337761    -1.6250988931
   14      O      -2.8374497133    -1.1100662609    -2.8207467702
   15      O       3.8545131263    -1.3277012875     1.5480708981
   16      O      -2.1850585544    -1.1902188646    -0.5390549447
   17      O      -1.7012463094     1.7405023484    -0.7908957392
   18      C      -1.1462824133    -2.1365287996    -1.0323718029
   19      C      -4.8594256665     0.7533097003     1.1513175434
   20      C      -6.4076654658     0.8694290724     0.8619553637
   21      C      -6.6407914043    -0.3836311702    -0.0607798964
   22      C      -5.1795026453    -0.9779254597    -0.1401300567
   23      O      -4.6213333914    -0.7081787555     1.2031838661
   24      H      -4.5090177243     2.1141915021    -0.5968581492
   25      H      -4.8907842100     0.2490994833    -1.9941245448
   26      H      -4.5091456571     1.2362207118     2.0828522561
   27      H      -6.9815655151     0.7928736333     1.7991099116
   28      H      -6.6679653285     1.8180274888     0.3658569611
   29      H      -7.3243945774    -1.1093600955     0.4079339911
   30      H      -7.0360064485    -0.1163722513    -1.0538139497
   31      H      -5.1215469007    -2.0585860109    -0.3746116141
   32      O       1.5799209445    -1.3136552679    -0.0476382762
   33      C       3.4775425337    -2.4965024937     2.3730985411
   34      C       5.4505557981     0.5166882342     0.0293203174
   35      C       5.9731855865     1.5359955114    -1.0590342357
   36      C       4.7196593086     2.4733489933    -1.2263036462
   37      C       3.7069587051     1.8081930042    -0.2137101771
   38      O       4.5761996204     1.3439523037     0.8913462046
   39      H       4.8166070310    -0.8439932027    -1.6446442694
   40      H       2.9490794464     0.5962400727    -1.9316015645
   41      H       4.2750193197    -3.2672485061     2.3867881208
   42      H       6.2381665461     0.0265230112     0.6336146258
   43      H       6.8449461261     2.0910279544    -0.6777569541
   44      H       6.2574447369     1.0324486480    -1.9967583387
   45      H       4.9450204972     3.5076756878    -0.9215875599
   46      H       4.3296890496     2.4850300652    -2.2567050597
   47      H       2.9022402822     2.4649565380     0.1682818452
   48      H       2.5422861269    -2.9623139837     1.9994973699
   49      H       3.3163633887    -2.1103803135     3.3963414093
   50      H      -0.1569138635    -1.8450642025    -0.6118303202
   51      H      -1.1263754978    -2.1099114332    -2.1393614372
   52      H      -1.4068034373    -3.1586361008    -0.6929006914
   53      H      -0.6917781527     1.8824128056     2.7885399019
   54      H      -0.4739620946     2.6044605890     1.1375713409
   55      H       0.4859378865    -0.0739250727     2.0769025003
   56      H      -0.6643739978    -0.2380363024     0.6949135308
 ----------------------------------------------------------------

    9   -1510.2856573659      2.04E-09 Convergence criterion met
 Total energy in the final basis set = -1510.28565737
 Final energy is   -1510.28565736587
 **  OPTIMIZATION CONVERGED  **

                    Orbital Energies (a.u.)
 --------------------------------------------------------------

 Alpha MOs
 -- Occupied --
-18.945 -18.938 -18.927 -18.924 -18.888 -18.887 -18.885 -18.874
-18.872 -18.865 -10.110 -10.102 -10.096 -10.092 -10.077 -10.071
-10.061 -10.060 -10.059 -10.058 -10.056 -10.040 -10.040 -10.037
-10.036 -10.035 -10.021 -10.020 -10.020 -10.019  -1.023  -1.015
 -1.004  -1.001  -0.970  -0.969  -0.945  -0.939  -0.930  -0.927
 -0.764  -0.762  -0.728  -0.722  -0.715  -0.706  -0.695  -0.654
 -0.648  -0.617  -0.598  -0.583  -0.546  -0.545  -0.538  -0.537
 -0.518  -0.512  -0.489  -0.473  -0.468  -0.462  -0.446  -0.441
 -0.433  -0.432  -0.428  -0.414  -0.409  -0.406  -0.405  -0.400
 -0.391  -0.382  -0.370  -0.367  -0.363  -0.357  -0.347  -0.345
 -0.343  -0.339  -0.337  -0.331  -0.330  -0.323  -0.320  -0.313
 -0.308  -0.305  -0.304  -0.301  -0.298  -0.290  -0.283  -0.276
 -0.272  -0.260  -0.255  -0.245  -0.240  -0.234  -0.234  -0.184
 -0.180  -0.171  -0.167  -0.160  -0.158  -0.150  -0.144  -0.144
 -0.143

          Ground-State Mulliken Net Atomic Charges

     Atom                 Charge (a.u.)
  ----------------------------------------
      1 O                    -0.213675
      2 C                     0.211548
      3 C                    -0.080350
      4 C                    -0.077524
      5 C                     0.222446
      6 O                    -0.165616
      7 C                    -0.052524
      8 C                    -0.047650
      9 O                    -0.168821
     10 C                     0.211665
     11 C                    -0.078675
     12 C                    -0.078925
     13 C                     0.209120
     14 O                    -0.212385
     15 O                    -0.172074
     16 O                    -0.175955
     17 O                    -0.215278
     18 C                    -0.152238
     19 C                     0.024025
     20 C                    -0.144503
     21 C                    -0.143677
     22 C                     0.025958
     23 O                    -0.186752
     24 H                     0.085392
     25 H                     0.085865
     26 H                     0.091810
     27 H                     0.077911
     28 H                     0.073041
     29 H                     0.078188
     30 H                     0.074325
     31 H                     0.083085
     32 O                    -0.216350
     33 C                    -0.129022
     34 C                     0.026304
     35 C                    -0.144225
     36 C                    -0.143878
     37 C                     0.023811
     38 O                    -0.187701
     39 H                     0.084782
     40 H                     0.087967
     41 H                     0.088213
     42 H                     0.083688
     43 H                     0.077712
     44 H                     0.074117
     45 H                     0.077854
     46 H                     0.073988
     47 H                     0.091209
     48 H                     0.090719
     49 H                     0.087419
     50 H                     0.103830
     51 H                     0.096576
     52 H                     0.078870
     53 H                     0.092098
     54 H                     0.098135
     55 H                     0.087798
     56 H                     0.108328
  ----------------------------------------
  Sum of atomic charges =    -0.000000

                    Cartesian Multipole Moments
 -----------------------------------------------------------------
    Charge (ESU x 10^10)
                -0.0000
    Dipole Moment (Debye)
         X      -0.9256      Y       2.1835      Z       0.8459
       Tot       2.5180
    Quadrupole Moments (Debye-Ang)
        XX    -142.0688     XY       0.9854     YY    -161.6539
        XZ      -3.6829     YZ      -3.2690     ZZ    -162.1135

 Total job time:  95.44s(wall), 4543.95s(cpu)
        *  Thank you very much for using Q-Chem.  Have a nice day.  *
