 Q-Chem 5.0, Q-Chem, Inc., Pleasanton, CA (2017)
 Q-Chem 5.0.1 for Intel X86 EM64T Linux

User input:
--------------------------------------------------------------
$molecule
0  1
O -3.94934 -3.66094 2.70899
C -3.26408 -4.56952 2.26188
C -3.36658 -6.02376 2.66595
C -3.86105 -7.01586 1.60055
C -4.02833 -6.47239 0.19885
O -4.02846 -7.50035 -0.70043
C -3.96853 -7.05852 -2.06074
C -3.97231 -8.25743 -3.00346
O -4.97898 -8.08305 -4.01297
C -6.26099 -8.16215 -3.57784
C -7.27059 -7.92314 -4.67522
C -8.22766 -6.74758 -4.42949
C -7.82198 -5.78331 -3.33299
O -8.50795 -5.47768 -2.36832
O -2.29833 -4.26147 1.35221
O -6.6281 -5.15027 -3.49023
O -6.58701 -8.46141 -2.43513
C -6.19566 -4.10408 -2.70038
C -6.72076 -7.53297 -6.07069
C -7.74587 -7.8909 -7.14798
C -8.81155 -6.84579 -6.8877
C -8.13094 -6.02828 -5.78567
O -6.75871 -6.12725 -6.08729
H -7.82555 -8.88282 -4.77827
H -9.25831 -7.09315 -4.19136
H -5.74636 -8.00306 -6.3236
H -7.27332 -7.67438 -8.13312
H -8.10063 -8.94392 -7.13868
H -8.93606 -6.23385 -7.80864
H -9.79607 -7.2421 -6.55706
H -8.54981 -4.99846 -5.74419
O -4.16911 -5.29727 -0.1138
C -2.05131 -2.99039 0.87708
C -1.99985 -6.60491 3.04779
C -2.18176 -7.83188 3.93889
C -2.67945 -8.83764 2.92565
C -2.64731 -7.99063 1.64909
O -1.5361 -7.1498 1.84087
H -4.05541 -6.04263 3.54067
H -4.79205 -7.56405 1.86612
H -1.76662 -2.31735 1.71374
H -1.33511 -5.86179 3.54111
H -1.177 -8.15332 4.29501
H -2.84981 -7.66486 4.81122
H -1.92529 -9.65267 2.84555
H -3.68084 -9.27231 3.13384
H -2.58174 -8.67431 0.77599
H -2.95273 -2.5922 0.36385
H -1.21513 -3.03073 0.1494
H -5.18368 -3.79204 -3.03057
H -6.14887 -4.41664 -1.63646
H -6.88786 -3.24113 -2.80065
H -2.97208 -8.35349 -3.47677
H -4.15636 -9.21078 -2.45682
H -3.06888 -6.43117 -2.25549
H -4.85711 -6.43069 -2.2533
$end

$opt
CONSTRAINT
tors           1           2           3           4    +113.409
tors           3           4           5           6    +159.879
tors           4           5           6           7    -170.637
tors           5           6           7           8    -180.000
tors           6           7           8           9    +129.266
tors           7           8           9          10     -69.545
tors           8           9          10          11    +178.001
tors           9          10          11          12    -121.118
tors          11          12          13          14    -124.427
ENDCONSTRAINT
$end

$rem
JOBTYPE                   OPT
METHOD                    B3LYP
DFT_D                     d3_op
BASIS                     STO-3G
GEOM_OPT_MAX_CYCLES       100
GEOM_OPT_TOL_GRADIENT     300
GEOM_OPT_TOL_DISPLACEMENT 1200
GEOM_OPT_TOL_ENERGY       100
SYMMETRY                  False
THRESH                    12
SCF_CONVERGENCE           8
MAX_SUB_FILE_NUM          128
MEM_STATIC                400
MEM_TOTAL                 4000
$end
--------------------------------------------------------------

   15   -1510.1575085006      6.54E-09 Convergence criterion met
 Total energy in the final basis set = -1510.15750850
   14   -1510.2262169175      5.44E-09 Convergence criterion met
 Total energy in the final basis set = -1510.22621692
   14   -1510.2625647195      6.18E-09 Convergence criterion met
 Total energy in the final basis set = -1510.26256472
   14   -1510.2774162088      4.90E-09 Convergence criterion met
 Total energy in the final basis set = -1510.27741621
   14   -1510.2798365709      5.24E-09 Convergence criterion met
 Total energy in the final basis set = -1510.27983657
    2   -1510.2798365708      2.05E-09 Convergence criterion met
 Total energy in the final basis set = -1510.27983657
   14   -1510.2806580402      5.16E-09 Convergence criterion met
 Total energy in the final basis set = -1510.28065804
   13   -1510.2823309127      8.88E-09 Convergence criterion met
   11   -1510.2865007468      6.08E-09 Convergence criterion met
 Total energy in the final basis set = -1510.28650075
   10   -1510.2865145239      5.55E-09 Convergence criterion met
 Total energy in the final basis set = -1510.28651452
   11   -1510.2865191841      5.88E-09 Convergence criterion met
 Total energy in the final basis set = -1510.28651918
   11   -1510.2865348553      3.10E-09 Convergence criterion met
 Total energy in the final basis set = -1510.28653486
   11   -1510.2865412517      2.39E-09 Convergence criterion met
 Total energy in the final basis set = -1510.28654125
    9   -1510.2865435811      9.26E-09 Convergence criterion met
 Total energy in the final basis set = -1510.28654358

             Standard Nuclear Orientation (Angstroms)
    I     Atom           X                Y                Z
 ----------------------------------------------------------------
    1      O       3.9274564664    -2.9319404275    -0.4356331243
    2      C       4.0284791309    -1.7855131164     0.0522884744
    3      C       4.3229789129    -0.4567219838    -0.7346634626
    4      C       3.1237477926     0.5794674816    -0.7421160603
    5      C       1.8514041072     0.0453739738     0.0000014507
    6      O       1.0154642230     1.1358982080     0.3631769446
    7      C      -0.0775900970     0.6758934155     1.2599196664
    8      C      -0.9500871264     1.9393742923     1.6109568376
    9      O      -2.3824727567     1.6547681119     1.3623667492
   10      C      -2.6113626955     1.5418970206    -0.0469776188
   11      C      -4.1141299336     1.1902736308    -0.3219121550
   12      C      -4.2636779059    -0.1753983435    -1.1225363948
   13      C      -2.9365188239    -0.9018493345    -1.5391990305
   14      O      -2.6366799742    -1.2278162825    -2.7100236583
   15      O       4.0100648902    -1.4994718533     1.4579595646
   16      O      -2.1388081695    -1.2261776105    -0.3876656555
   17      O      -1.7278282710     1.7206367800    -0.9137731526
   18      C      -1.0518069760    -2.1666148678    -0.7773368769
   19      C      -4.9392081285     0.8609098918     0.9901613825
   20      C      -6.4774043933     0.8469868349     0.6306044932
   21      C      -6.6031747118    -0.5273257596    -0.1252491315
   22      C      -5.1078493398    -1.0343214623    -0.0797348187
   23      O      -4.6224335956    -0.5654529376     1.2363213122
   24      H      -4.5604896295     2.0241218778    -0.8942175356
   25      H      -4.8313214097    -0.0178272138    -2.0568285418
   26      H      -4.6596654155     1.4758415251     1.8662267200
   27      H      -7.0857506533     0.8591270622     1.5487646297
   28      H      -6.7665328044     1.7064347011     0.0049133016
   29      H      -7.2614334586    -1.2262467981     0.4150687783
   30      H      -6.9750005009    -0.4159752248    -1.1562771768
   31      H      -4.9773992311    -2.1298088145    -0.1740952937
   32      O       1.5819478497    -1.1575142741     0.2408786918
   33      C       3.6684299818    -2.7276202359     2.2084748691
   34      C       5.4510007744     0.4171312628    -0.0326766328
   35      C       5.9605923334     1.5013311081    -1.0634690510
   36      C       4.7638184570     2.5234644277    -1.0501991485
   37      C       3.7857375429     1.8296140800    -0.0228435104
   38      O       4.6991938502     1.2129592609     0.9651298738
   39      H       4.6047129639    -0.7418935618    -1.7634252970
   40      H       2.8265030359     0.8352147529    -1.7766207510
   41      H       4.3713966820    -3.5558150407     1.9846402949
   42      H       6.2455697521    -0.1733925149     0.4626033357
   43      H       6.8920236131     1.9654273896    -0.7021938092
   44      H       6.1440428381     1.0721718717    -2.0614170272
   45      H       5.0788112672     3.5108664233    -0.6767564401
   46      H       4.3008896526     2.6516234544    -2.0416945355
   47      H       3.0576275063     2.4983667616     0.4753135086
   48      H       2.6383315110    -3.0657044256     1.9724205946
   49      H       3.7350432391    -2.4617090634     3.2794530076
   50      H      -0.0922089894    -1.8214773250    -0.3302166498
   51      H      -0.9792755939    -2.1993990688    -1.8819955824
   52      H      -1.3003590793    -3.1750695157    -0.3915130868
   53      H      -0.8811842570     2.1948079242     2.6860678493
   54      H      -0.5975944798     2.7980992578     0.9986123531
   55      H       0.3525209990     0.2127280454     2.1733601274
   56      H      -0.7297798115    -0.0741198768     0.7566585825
 ----------------------------------------------------------------

    9   -1510.2865442424      4.09E-09 Convergence criterion met
 Total energy in the final basis set = -1510.28654424
 Final energy is   -1510.28654424236
 **  OPTIMIZATION CONVERGED  **

                    Orbital Energies (a.u.)
 --------------------------------------------------------------

 Alpha MOs
 -- Occupied --
-18.947 -18.939 -18.927 -18.920 -18.889 -18.888 -18.887 -18.876
-18.873 -18.859 -10.112 -10.103 -10.096 -10.089 -10.078 -10.072
-10.061 -10.059 -10.059 -10.059 -10.053 -10.041 -10.041 -10.037
-10.035 -10.033 -10.021 -10.020 -10.020 -10.019  -1.024  -1.016
 -1.004  -0.997  -0.970  -0.969  -0.947  -0.940  -0.930  -0.923
 -0.764  -0.762  -0.729  -0.722  -0.715  -0.706  -0.695  -0.651
 -0.647  -0.618  -0.597  -0.582  -0.546  -0.545  -0.538  -0.537
 -0.518  -0.512  -0.489  -0.472  -0.468  -0.462  -0.446  -0.443
 -0.434  -0.432  -0.429  -0.413  -0.408  -0.405  -0.403  -0.400
 -0.391  -0.383  -0.370  -0.367  -0.362  -0.357  -0.348  -0.344
 -0.341  -0.340  -0.334  -0.331  -0.330  -0.323  -0.321  -0.315
 -0.308  -0.305  -0.304  -0.300  -0.298  -0.290  -0.281  -0.276
 -0.272  -0.261  -0.256  -0.242  -0.241  -0.234  -0.234  -0.186
 -0.181  -0.171  -0.163  -0.161  -0.158  -0.150  -0.144  -0.143
 -0.139

          Ground-State Mulliken Net Atomic Charges

     Atom                 Charge (a.u.)
  ----------------------------------------
      1 O                    -0.217740
      2 C                     0.212571
      3 C                    -0.081068
      4 C                    -0.077740
      5 C                     0.222752
      6 O                    -0.165410
      7 C                    -0.053480
      8 C                    -0.047548
      9 O                    -0.168193
     10 C                     0.210961
     11 C                    -0.078532
     12 C                    -0.079134
     13 C                     0.208887
     14 O                    -0.211112
     15 O                    -0.171862
     16 O                    -0.176485
     17 O                    -0.214551
     18 C                    -0.152750
     19 C                     0.024178
     20 C                    -0.144714
     21 C                    -0.143641
     22 C                     0.026121
     23 O                    -0.186665
     24 H                     0.085795
     25 H                     0.085744
     26 H                     0.091470
     27 H                     0.077941
     28 H                     0.073078
     29 H                     0.078127
     30 H                     0.074254
     31 H                     0.083374
     32 O                    -0.212713
     33 C                    -0.128403
     34 C                     0.026568
     35 C                    -0.144383
     36 C                    -0.143696
     37 C                     0.024408
     38 O                    -0.187512
     39 H                     0.084210
     40 H                     0.089099
     41 H                     0.087107
     42 H                     0.084582
     43 H                     0.077635
     44 H                     0.074110
     45 H                     0.077801
     46 H                     0.074107
     47 H                     0.088562
     48 H                     0.090214
     49 H                     0.086973
     50 H                     0.104040
     51 H                     0.096866
     52 H                     0.078765
     53 H                     0.092305
     54 H                     0.097664
     55 H                     0.087974
     56 H                     0.109087
  ----------------------------------------
  Sum of atomic charges =     0.000000

                    Cartesian Multipole Moments
 -----------------------------------------------------------------
    Charge (ESU x 10^10)
                 0.0000
    Dipole Moment (Debye)
         X      -1.1009      Y       2.2710      Z       0.6949
       Tot       2.6177
    Quadrupole Moments (Debye-Ang)
        XX    -141.6334     XY       1.0059     YY    -159.6423
        XZ      -2.6943     YZ      -3.6509     ZZ    -163.3397

 Total job time:  93.05s(wall), 4430.21s(cpu)
        *  Thank you very much for using Q-Chem.  Have a nice day.  *
