 Q-Chem 5.0, Q-Chem, Inc., Pleasanton, CA (2017)
 Q-Chem 5.0.1 for Intel X86 EM64T Linux

User input:
--------------------------------------------------------------
$molecule
0  1
O 3.9274564664 -2.9319404275 -0.4356331243
C 4.0284791309 -1.7855131164 0.0522884744
C 4.3229789129 -0.4567219838 -0.7346634626
C 3.1237477926 0.5794674816 -0.7421160603
C 1.8514041072 0.0453739738 1.4507e-06
O 1.015464223 1.135898208 0.3631769446
C -0.077590097 0.6758934155 1.2599196664
C -0.9500871264 1.9393742923 1.6109568376
O -2.3824727567 1.6547681119 1.3623667492
C -2.6113626955 1.5418970206 -0.0469776188
C -4.1141299336 1.1902736308 -0.321912155
C -4.2636779059 -0.1753983435 -1.1225363948
C -2.9365188239 -0.9018493345 -1.5391990305
O -2.6366799742 -1.2278162825 -2.7100236583
O 4.0100648902 -1.4994718533 1.4579595646
O -2.1388081695 -1.2261776105 -0.3876656555
O -1.727828271 1.72063678 -0.9137731526
C -1.051806976 -2.1666148678 -0.7773368769
C -4.9392081285 0.8609098918 0.9901613825
C -6.4774043933 0.8469868349 0.6306044932
C -6.6031747118 -0.5273257596 -0.1252491315
C -5.1078493398 -1.0343214623 -0.0797348187
O -4.6224335956 -0.5654529376 1.2363213122
H -4.5604896295 2.0241218778 -0.8942175356
H -4.8313214097 -0.0178272138 -2.0568285418
H -4.6596654155 1.4758415251 1.86622672
H -7.0857506533 0.8591270622 1.5487646297
H -6.7665328044 1.7064347011 0.0049133016
H -7.2614334586 -1.2262467981 0.4150687783
H -6.9750005009 -0.4159752248 -1.1562771768
H -4.9773992311 -2.1298088145 -0.1740952937
O 1.5819478497 -1.1575142741 0.2408786918
C 3.6684299818 -2.7276202359 2.2084748691
C 5.4510007744 0.4171312628 -0.0326766328
C 5.9605923334 1.5013311081 -1.063469051
C 4.763818457 2.5234644277 -1.0501991485
C 3.7857375429 1.82961408 -0.0228435104
O 4.6991938502 1.2129592609 0.9651298738
H 4.6047129639 -0.7418935618 -1.763425297
H 2.8265030359 0.8352147529 -1.776620751
H 4.371396682 -3.5558150407 1.9846402949
H 6.2455697521 -0.1733925149 0.4626033357
H 6.8920236131 1.9654273896 -0.7021938092
H 6.1440428381 1.0721718717 -2.0614170272
H 5.0788112672 3.5108664233 -0.6767564401
H 4.3008896526 2.6516234544 -2.0416945355
H 3.0576275063 2.4983667616 0.4753135086
H 2.638331511 -3.0657044256 1.9724205946
H 3.7350432391 -2.4617090634 3.2794530076
H -0.0922089894 -1.821477325 -0.3302166498
H -0.9792755939 -2.1993990688 -1.8819955824
H -1.3003590793 -3.1750695157 -0.3915130868
H -0.881184257 2.1948079242 2.6860678493
H -0.5975944798 2.7980992578 0.9986123531
H 0.352520999 0.2127280454 2.1733601274
H -0.7297798115 -0.0741198768 0.7566585825
$end

$rem
JOBTYPE                   OPT
METHOD                    B3LYP
DFT_D                     d3_op
BASIS                     STO-3G
GEOM_OPT_MAX_CYCLES       100
GEOM_OPT_TOL_GRADIENT     300
GEOM_OPT_TOL_DISPLACEMENT 1200
GEOM_OPT_TOL_ENERGY       100
SYMMETRY                  False
THRESH                    12
SCF_CONVERGENCE           8
MAX_SUB_FILE_NUM          128
MEM_STATIC                400
MEM_TOTAL                 4000
$end
--------------------------------------------------------------

   16   -1510.2865086587      5.77E-09 Convergence criterion met
 Total energy in the final basis set = -1510.28650866
   14   -1510.2442678332      9.83E-09 Convergence criterion met
 Total energy in the final basis set = -1510.24426783
   14   -1510.2857006376      4.85E-09 Convergence criterion met
 Total energy in the final basis set = -1510.28570064
   14   -1510.2844096068      6.27E-09 Convergence criterion met
 Total energy in the final basis set = -1510.28440961
   14   -1510.2859029106      5.43E-09 Convergence criterion met
 Total energy in the final basis set = -1510.28590291
   14   -1510.2855641592      5.66E-09 Convergence criterion met
 Total energy in the final basis set = -1510.28556416
   13   -1510.2865657775      8.86E-09 Convergence criterion met
 Total energy in the final basis set = -1510.28656578
   14   -1510.2857715188      2.58E-09 Convergence criterion met
   11   -1510.2899485818      2.53E-09 Convergence criterion met
 Total energy in the final basis set = -1510.28994858
   11   -1510.2899595271      5.20E-09 Convergence criterion met
 Total energy in the final basis set = -1510.28995953
   10   -1510.2899693902      8.09E-09 Convergence criterion met
 Total energy in the final basis set = -1510.28996939
   11   -1510.2899968057      3.45E-09 Convergence criterion met
 Total energy in the final basis set = -1510.28999681
   10   -1510.2900014038      8.86E-09 Convergence criterion met
 Total energy in the final basis set = -1510.29000140
    9   -1510.2899941155      8.50E-09 Convergence criterion met
 Total energy in the final basis set = -1510.28999412

             Standard Nuclear Orientation (Angstroms)
    I     Atom           X                Y                Z
 ----------------------------------------------------------------
    1      O       1.8711488822    -2.4178058743    -0.7214567400
    2      C       2.7127357755    -1.5655753648    -0.3519268165
    3      C       3.0658777106    -0.2289386455    -1.0984683828
    4      C       2.4441990475     1.0638558900    -0.4283835623
    5      C       1.5740013250     0.7456069050     0.8297555598
    6      O       1.2060445506     1.9744828567     1.4600707720
    7      C       0.1596211098     1.7372351920     2.4814347612
    8      C      -1.1196827873     2.5793596055     2.1025279434
    9      O      -2.2644282914     1.8240857378     1.5400013476
   10      C      -1.9664464111     1.2392334016     0.2680678908
   11      C      -3.3048758120     0.7835227995    -0.4176572575
   12      C      -3.2110177503    -0.6086301584    -1.1686992213
   13      C      -1.8957778449    -1.4292980544    -0.9194724468
   14      O      -1.1373335556    -1.8940444368    -1.7981954794
   15      O       3.5998629958    -1.7386879757     0.7580477220
   16      O      -1.7508813721    -1.6364398243     0.4858068240
   17      O      -0.8254276209     1.1763394004    -0.2391194214
   18      C      -0.6857837568    -2.6308241096     0.7614396810
   19      C      -4.5210068926     0.5276332310     0.5705985488
   20      C      -5.8544556861     0.6262798336    -0.2696142634
   21      C      -5.7869150219    -0.7110501060    -1.0958877298
   22      C      -4.4601539314    -1.3576543397    -0.5279345123
   23      O      -4.4279693749    -0.9158507371     0.8845196513
   24      H      -3.5626688323     1.5808910450    -1.1409308058
   25      H      -3.3223613591    -0.4836166550    -2.2599518969
   26      H      -4.4873551117     1.1341419175     1.4953173020
   27      H      -6.7283682791     0.6421916157     0.4010420234
   28      H      -5.8836433394     1.5233572328    -0.9085727098
   29      H      -6.6528606541    -1.3599872662    -0.8894705479
   30      H      -5.7279834712    -0.5364502608    -2.1820605486
   31      H      -4.4117358455    -2.4621001168    -0.5895131917
   32      O       1.2358298414    -0.3848977896     1.2482751097
   33      C       3.2357243448    -2.9639416356     1.5030862366
   34      C       4.6124559324     0.1251589715    -1.0321766415
   35      C       4.9158911392     1.2335298838    -2.1179206324
   36      C       4.3058711459     2.5111103660    -1.4299290973
   37      C       3.7537599544     1.8955182792    -0.0845662902
   38      O       4.7460374363     0.8514253409     0.2526881462
   39      H       2.7114163181    -0.3360966841    -2.1387185016
   40      H       1.7989210083     1.6136285092    -1.1378951888
   41      H       3.1944091743    -3.8513575758     0.8391809978
   42      H       5.2864645243    -0.7524563920    -1.0514276458
   43      H       6.0020590939     1.3362200261    -2.2706420983
   44      H       4.4421832897     1.0053024457    -3.0860321682
   45      H       5.0808333887     3.2649712052    -1.2184589966
   46      H       3.5091688762     2.9803337422    -2.0288968669
   47      H       3.6299486011     2.6091117041     0.7528004025
   48      H       2.2512281466    -2.8478736325     2.0004366401
   49      H       4.0220417520    -3.1036582725     2.2673691849
   50      H      -0.4159862881    -2.5015505640     1.8252347284
   51      H       0.2166117233    -2.4888367100     0.1206707674
   52      H      -1.0778888540    -3.6577473917     0.6085781990
   53      H      -1.5353734184     3.0511419780     3.0155751921
   54      H      -0.8023244323     3.3817561021     1.3993689033
   55      H       0.5501108025     2.0816173248     3.4620867736
   56      H      -0.0614405810     0.6481803079     2.5345870405
 ----------------------------------------------------------------

    9   -1510.2899871115      2.93E-09 Convergence criterion met
 Total energy in the final basis set = -1510.28998711
 Final energy is   -1510.28998711148
 **  OPTIMIZATION CONVERGED  **

                    Orbital Energies (a.u.)
 --------------------------------------------------------------

 Alpha MOs
 -- Occupied --
-18.939 -18.934 -18.922 -18.912 -18.884 -18.883 -18.881 -18.879
-18.860 -18.856 -10.106 -10.105 -10.091 -10.081 -10.080 -10.072
-10.057 -10.055 -10.055 -10.054 -10.053 -10.036 -10.035 -10.029
-10.028 -10.027 -10.017 -10.017 -10.016 -10.016  -1.020  -1.010
 -0.997  -0.990  -0.966  -0.965  -0.943  -0.938  -0.923  -0.916
 -0.760  -0.758  -0.726  -0.718  -0.713  -0.702  -0.693  -0.651
 -0.638  -0.619  -0.592  -0.579  -0.542  -0.541  -0.534  -0.533
 -0.511  -0.508  -0.484  -0.470  -0.462  -0.457  -0.445  -0.436
 -0.430  -0.429  -0.422  -0.408  -0.407  -0.401  -0.399  -0.394
 -0.387  -0.382  -0.374  -0.361  -0.356  -0.351  -0.348  -0.344
 -0.338  -0.330  -0.329  -0.325  -0.322  -0.319  -0.315  -0.310
 -0.305  -0.302  -0.299  -0.295  -0.291  -0.288  -0.277  -0.272
 -0.267  -0.257  -0.249  -0.242  -0.231  -0.229  -0.227  -0.187
 -0.173  -0.165  -0.159  -0.156  -0.151  -0.141  -0.138  -0.138
 -0.133

          Ground-State Mulliken Net Atomic Charges

     Atom                 Charge (a.u.)
  ----------------------------------------
      1 O                    -0.219655
      2 C                     0.220993
      3 C                    -0.080678
      4 C                    -0.076717
      5 C                     0.230145
      6 O                    -0.173862
      7 C                    -0.055009
      8 C                    -0.048922
      9 O                    -0.170735
     10 C                     0.216958
     11 C                    -0.077853
     12 C                    -0.079590
     13 C                     0.207801
     14 O                    -0.211228
     15 O                    -0.167460
     16 O                    -0.173482
     17 O                    -0.217472
     18 C                    -0.141558
     19 C                     0.023533
     20 C                    -0.143731
     21 C                    -0.144751
     22 C                     0.026361
     23 O                    -0.185793
     24 H                     0.082654
     25 H                     0.082306
     26 H                     0.091174
     27 H                     0.076935
     28 H                     0.071493
     29 H                     0.077019
     30 H                     0.073149
     31 H                     0.082588
     32 O                    -0.211638
     33 C                    -0.128066
     34 C                     0.026316
     35 C                    -0.144322
     36 C                    -0.143476
     37 C                     0.024542
     38 O                    -0.187789
     39 H                     0.087305
     40 H                     0.094277
     41 H                     0.088283
     42 H                     0.085304
     43 H                     0.076983
     44 H                     0.074160
     45 H                     0.076946
     46 H                     0.073759
     47 H                     0.086412
     48 H                     0.090208
     49 H                     0.088035
     50 H                     0.080637
     51 H                     0.117766
     52 H                     0.073208
     53 H                     0.091090
     54 H                     0.090841
     55 H                     0.086215
     56 H                     0.108391
  ----------------------------------------
  Sum of atomic charges =    -0.000000

                    Cartesian Multipole Moments
 -----------------------------------------------------------------
    Charge (ESU x 10^10)
                -0.0000
    Dipole Moment (Debye)
         X      -0.8971      Y       2.8459      Z       0.0672
       Tot       2.9847
    Quadrupole Moments (Debye-Ang)
        XX    -152.5985     XY      -4.3332     YY    -152.6650
        XZ       0.7859     YZ      -2.2030     ZZ    -155.5663

 Total job time:  175.06s(wall), 8346.31s(cpu)
        *  Thank you very much for using Q-Chem.  Have a nice day.  *
