 Q-Chem 5.0, Q-Chem, Inc., Pleasanton, CA (2017)
 Q-Chem 5.0.1 for Intel X86 EM64T Linux

User input:
--------------------------------------------------------------
$molecule
0  1
O -3.94934 -3.66094 2.70899
C -3.26408 -4.56952 2.26188
C -3.36658 -6.02376 2.66595
C -3.69229 -7.03941 1.5586
C -3.70375 -6.51128 0.1412
O -3.55843 -7.54451 -0.74014
C -3.30646 -7.11001 -2.08065
C -3.15608 -8.31448 -3.0041
O -3.95619 -8.13054 -4.18261
C -5.2976 -8.18685 -3.99134
C -6.08331 -7.93877 -5.25696
C -7.08333 -6.77585 -5.18059
C -6.90448 -5.82613 -4.01322
O -7.76461 -5.54237 -3.19212
O -2.24085 -4.24688 1.42245
O -5.7066 -5.187 -3.92687
O -5.83335 -8.49421 -2.93287
C -5.4389 -4.15809 -3.04689
C -5.28429 -7.52404 -6.51806
C -6.0845 -7.87289 -7.77403
C -7.18988 -6.83885 -7.70593
C -6.73834 -6.03421 -6.48337
O -5.33285 -6.11847 -6.52155
H -6.60148 -8.90018 -5.47334
H -8.13673 -7.13329 -5.14861
H -4.27498 -7.98272 -6.58945
H -5.437 -7.63913 -8.64969
H -6.42476 -8.92836 -7.84491
H -7.14272 -6.21298 -8.62472
H -8.2156 -7.24661 -7.57454
H -7.16788 -5.00822 -6.50745
O -3.88204 -5.34957 -0.20033
C -1.95777 -2.96738 0.99207
C -2.02842 -6.5493 3.20359
C -2.26217 -7.77385 4.08554
C -2.61178 -8.80558 3.0376
C -2.46101 -7.97093 1.76118
O -1.4102 -7.08785 2.06537
H -4.14095 -6.06386 3.46511
H -4.6296 -7.61809 1.71415
H -1.7221 -2.31491 1.85977
H -1.45042 -5.77774 3.75881
H -1.28937 -8.05369 4.5494
H -3.02412 -7.62632 4.88101
H -1.83131 -9.5992 3.05691
H -3.61853 -9.26596 3.13567
H -2.27154 -8.66112 0.91164
H -2.82314 -2.55201 0.43264
H -1.07758 -2.99743 0.31773
H -4.38432 -3.83719 -3.1709
H -5.59465 -4.49456 -2.00093
H -6.10435 -3.29427 -3.25881
H -2.08617 -8.44332 -3.27265
H -3.46937 -9.25638 -2.49763
H -2.40695 -6.4577 -2.1566
H -4.17746 -6.5078 -2.39892
$end

$opt
CONSTRAINT
tors           1           2           3           4    +120.766
tors           3           4           5           6    +159.879
tors           4           5           6           7    -168.881
tors           5           6           7           8    -180.000
tors           6           7           8           9    +132.105
tors           7           8           9          10     -69.545
tors           8           9          10          11    +178.001
tors           9          10          11          12    -123.049
tors          11          12          13          14    -124.427
ENDCONSTRAINT
$end

$rem
JOBTYPE                   OPT
METHOD                    B3LYP
DFT_D                     d3_op
BASIS                     STO-3G
GEOM_OPT_MAX_CYCLES       100
GEOM_OPT_TOL_GRADIENT     300
GEOM_OPT_TOL_DISPLACEMENT 1200
GEOM_OPT_TOL_ENERGY       100
SYMMETRY                  False
THRESH                    12
SCF_CONVERGENCE           8
MAX_SUB_FILE_NUM          128
MEM_STATIC                400
MEM_TOTAL                 4000
$end
--------------------------------------------------------------

   15   -1510.1558272907      6.69E-09 Convergence criterion met
 Total energy in the final basis set = -1510.15582729
   14   -1510.2246888691      5.38E-09 Convergence criterion met
 Total energy in the final basis set = -1510.22468887
   14   -1510.2611841908      6.09E-09 Convergence criterion met
 Total energy in the final basis set = -1510.26118419
   14   -1510.2761323467      5.23E-09 Convergence criterion met
 Total energy in the final basis set = -1510.27613235
   14   -1510.2784585452      5.98E-09 Convergence criterion met
 Total energy in the final basis set = -1510.27845855
   14   -1510.2799608204      5.65E-09 Convergence criterion met
 Total energy in the final basis set = -1510.27996082
   13   -1510.2815116145      7.52E-09 Convergence criterion met
 Total energy in the final basis set = -1510.28151161
   13   -1510.2820573740      4.55E-09 Convergence criterion met
   11   -1510.2860317364      7.94E-09 Convergence criterion met
 Total energy in the final basis set = -1510.28603174
   11   -1510.2860464026      3.61E-09 Convergence criterion met
 Total energy in the final basis set = -1510.28604640
   11   -1510.2860557267      1.23E-09 Convergence criterion met
 Total energy in the final basis set = -1510.28605573
    9   -1510.2860640136      6.41E-09 Convergence criterion met
 Total energy in the final basis set = -1510.28606401
    9   -1510.2860675134      5.72E-09 Convergence criterion met
 Total energy in the final basis set = -1510.28606751
    9   -1510.2860692367      8.44E-09 Convergence criterion met
 Total energy in the final basis set = -1510.28606924

             Standard Nuclear Orientation (Angstroms)
    I     Atom           X                Y                Z
 ----------------------------------------------------------------
    1      O       4.0473396908    -2.9702804902    -0.2842025390
    2      C       4.0512763107    -1.7931522807     0.1365604003
    3      C       4.3621518718    -0.5003876476    -0.7014648447
    4      C       3.1847991249     0.5584216324    -0.7332376041
    5      C       1.8745991071     0.0380574684    -0.0496360049
    6      O       1.0486722077     1.1408536330     0.3018288725
    7      C      -0.0634656950     0.6971007758     1.1828457482
    8      C      -0.9225597806     1.9734779593     1.5210890855
    9      O      -2.3621986353     1.6890986890     1.3175375761
   10      C      -2.6267671705     1.5388985781    -0.0822066928
   11      C      -4.1368175877     1.1870643970    -0.3124488069
   12      C      -4.3071994197    -0.1745866083    -1.1155107807
   13      C      -2.9886077289    -0.8961276705    -1.5666541354
   14      O      -2.7137824432    -1.2166352410    -2.7449823387
   15      O       3.9023155031    -1.4285729155     1.5162701517
   16      O      -2.1653825114    -1.2216090608    -0.4337085208
   17      O      -1.7654838779     1.6940420137    -0.9756512819
   18      C      -1.0771543282    -2.1483324163    -0.8513978024
   19      C      -4.9219731781     0.8503892644     1.0220110476
   20      C      -6.4702472872     0.8380926397     0.7092696040
   21      C      -6.6177147807    -0.5300444755    -0.0539642208
   22      C      -5.1224015279    -1.0384030437    -0.0541589894
   23      O      -4.5984263795    -0.5774999331     1.2501180556
   24      H      -4.6007822681     2.0234175711    -0.8671015031
   25      H      -4.8985726968    -0.0134303781    -2.0343696717
   26      H      -4.6154992378     1.4605829250     1.8923666046
   27      H      -7.0502813203     0.8413847459     1.6457086685
   28      H      -6.7796151429     1.7026282977     0.1004570095
   29      H      -7.2622371329    -1.2326659565     0.4979626190
   30      H      -7.0172201646    -0.4094757112    -1.0735325457
   31      H      -4.9954809374    -2.1334812375    -0.1578388841
   32      O       1.5698326713    -1.1636408392     0.1506586883
   33      C       3.5518420617    -2.6259103160     2.3110487946
   34      C       5.5040146490     0.3707855269    -0.0173089076
   35      C       6.0101649411     1.4484630004    -1.0574661057
   36      C       4.8338561795     2.4936041403    -1.0153879423
   37      C       3.8501526106     1.7965722671     0.0037181633
   38      O       4.7637541289     1.1707160804     0.9858079995
   39      H       4.6404308198    -0.8237047230    -1.7196591419
   40      H       2.9277071912     0.8248385278    -1.7759861329
   41      H       4.3199305445    -3.4210499670     2.2202507525
   42      H       6.3005068571    -0.2219139327     0.4724905791
   43      H       6.9596262141     1.8933056349    -0.7198907633
   44      H       6.1594869864     1.0165098472    -2.0599210476
   45      H       5.1713039730     3.4649878379    -0.6200331817
   46      H       4.3687716691     2.6551730954    -2.0010152033
   47      H       3.1249561431     2.4645605081     0.5071616147
   48      H       2.5730107114    -3.0428728734     1.9963537270
   49      H       3.4900196727    -2.2882613277     3.3619450278
   50      H      -0.1145025738    -1.8028031313    -0.4104223273
   51      H      -1.0177229972    -2.1642519052    -1.9571978397
   52      H      -1.3137140488    -3.1647437584    -0.4790615851
   53      H      -0.8241294631     2.2595591953     2.5861201350
   54      H      -0.5827780588     2.8128225064     0.8755094734
   55      H       0.3472088347     0.2294247036     2.1029045459
   56      H      -0.7180920051    -0.0456787835     0.6728102649
 ----------------------------------------------------------------

    9   -1510.2860695251      5.64E-09 Convergence criterion met
 Total energy in the final basis set = -1510.28606953
 Final energy is   -1510.28606952508
 **  OPTIMIZATION CONVERGED  **

                    Orbital Energies (a.u.)
 --------------------------------------------------------------

 Alpha MOs
 -- Occupied --
-18.946 -18.940 -18.926 -18.920 -18.889 -18.888 -18.888 -18.876
-18.872 -18.861 -10.112 -10.103 -10.095 -10.089 -10.078 -10.072
-10.061 -10.060 -10.059 -10.059 -10.054 -10.041 -10.041 -10.037
-10.035 -10.034 -10.021 -10.020 -10.020 -10.019  -1.024  -1.016
 -1.003  -0.998  -0.970  -0.970  -0.947  -0.940  -0.929  -0.924
 -0.764  -0.763  -0.729  -0.722  -0.715  -0.707  -0.695  -0.652
 -0.647  -0.618  -0.597  -0.583  -0.546  -0.545  -0.538  -0.537
 -0.518  -0.512  -0.489  -0.473  -0.468  -0.461  -0.447  -0.442
 -0.433  -0.433  -0.429  -0.413  -0.408  -0.405  -0.403  -0.400
 -0.391  -0.383  -0.371  -0.367  -0.362  -0.356  -0.348  -0.343
 -0.343  -0.339  -0.335  -0.331  -0.330  -0.323  -0.321  -0.315
 -0.308  -0.305  -0.304  -0.301  -0.297  -0.291  -0.283  -0.276
 -0.272  -0.261  -0.256  -0.243  -0.240  -0.234  -0.234  -0.185
 -0.182  -0.171  -0.164  -0.161  -0.158  -0.150  -0.144  -0.143
 -0.140

          Ground-State Mulliken Net Atomic Charges

     Atom                 Charge (a.u.)
  ----------------------------------------
      1 O                    -0.217102
      2 C                     0.212398
      3 C                    -0.080515
      4 C                    -0.078052
      5 C                     0.223243
      6 O                    -0.166331
      7 C                    -0.053202
      8 C                    -0.047541
      9 O                    -0.168286
     10 C                     0.211332
     11 C                    -0.078518
     12 C                    -0.079138
     13 C                     0.209009
     14 O                    -0.211436
     15 O                    -0.171572
     16 O                    -0.176596
     17 O                    -0.214639
     18 C                    -0.152933
     19 C                     0.023992
     20 C                    -0.144660
     21 C                    -0.143678
     22 C                     0.026096
     23 O                    -0.186783
     24 H                     0.085769
     25 H                     0.085594
     26 H                     0.091567
     27 H                     0.077918
     28 H                     0.073065
     29 H                     0.078097
     30 H                     0.074227
     31 H                     0.083382
     32 O                    -0.212618
     33 C                    -0.128302
     34 C                     0.026499
     35 C                    -0.144557
     36 C                    -0.143350
     37 C                     0.024652
     38 O                    -0.186740
     39 H                     0.084701
     40 H                     0.088561
     41 H                     0.086909
     42 H                     0.083921
     43 H                     0.077797
     44 H                     0.074219
     45 H                     0.077895
     46 H                     0.074140
     47 H                     0.088624
     48 H                     0.090284
     49 H                     0.087092
     50 H                     0.104414
     51 H                     0.096382
     52 H                     0.078385
     53 H                     0.092200
     54 H                     0.097680
     55 H                     0.087746
     56 H                     0.108756
  ----------------------------------------
  Sum of atomic charges =    -0.000000

                    Cartesian Multipole Moments
 -----------------------------------------------------------------
    Charge (ESU x 10^10)
                 0.0000
    Dipole Moment (Debye)
         X      -1.0559      Y       2.3470      Z       0.7253
       Tot       2.6738
    Quadrupole Moments (Debye-Ang)
        XX    -141.7744     XY       1.5804     YY    -160.1066
        XZ      -3.3217     YZ      -3.4085     ZZ    -163.3995

 Total job time:  92.83s(wall), 4419.75s(cpu)
        *  Thank you very much for using Q-Chem.  Have a nice day.  *
