 Q-Chem 5.0, Q-Chem, Inc., Pleasanton, CA (2017)
 Q-Chem 5.0.1 for Intel X86 EM64T Linux

User input:
--------------------------------------------------------------
$molecule
0  1
O 4.0473396908 -2.9702804902 -0.284202539
C 4.0512763107 -1.7931522807 0.1365604003
C 4.3621518718 -0.5003876476 -0.7014648447
C 3.1847991249 0.5584216324 -0.7332376041
C 1.8745991071 0.0380574684 -0.0496360049
O 1.0486722077 1.140853633 0.3018288725
C -0.063465695 0.6971007758 1.1828457482
C -0.9225597806 1.9734779593 1.5210890855
O -2.3621986353 1.689098689 1.3175375761
C -2.6267671705 1.5388985781 -0.0822066928
C -4.1368175877 1.187064397 -0.3124488069
C -4.3071994197 -0.1745866083 -1.1155107807
C -2.9886077289 -0.8961276705 -1.5666541354
O -2.7137824432 -1.216635241 -2.7449823387
O 3.9023155031 -1.4285729155 1.5162701517
O -2.1653825114 -1.2216090608 -0.4337085208
O -1.7654838779 1.6940420137 -0.9756512819
C -1.0771543282 -2.1483324163 -0.8513978024
C -4.9219731781 0.8503892644 1.0220110476
C -6.4702472872 0.8380926397 0.709269604
C -6.6177147807 -0.5300444755 -0.0539642208
C -5.1224015279 -1.0384030437 -0.0541589894
O -4.5984263795 -0.5774999331 1.2501180556
H -4.6007822681 2.0234175711 -0.8671015031
H -4.8985726968 -0.0134303781 -2.0343696717
H -4.6154992378 1.460582925 1.8923666046
H -7.0502813203 0.8413847459 1.6457086685
H -6.7796151429 1.7026282977 0.1004570095
H -7.2622371329 -1.2326659565 0.497962619
H -7.0172201646 -0.4094757112 -1.0735325457
H -4.9954809374 -2.1334812375 -0.1578388841
O 1.5698326713 -1.1636408392 0.1506586883
C 3.5518420617 -2.625910316 2.3110487946
C 5.504014649 0.3707855269 -0.0173089076
C 6.0101649411 1.4484630004 -1.0574661057
C 4.8338561795 2.4936041403 -1.0153879423
C 3.8501526106 1.7965722671 0.0037181633
O 4.7637541289 1.1707160804 0.9858079995
H 4.6404308198 -0.823704723 -1.7196591419
H 2.9277071912 0.8248385278 -1.7759861329
H 4.3199305445 -3.421049967 2.2202507525
H 6.3005068571 -0.2219139327 0.4724905791
H 6.9596262141 1.8933056349 -0.7198907633
H 6.1594869864 1.0165098472 -2.0599210476
H 5.171303973 3.4649878379 -0.6200331817
H 4.3687716691 2.6551730954 -2.0010152033
H 3.1249561431 2.4645605081 0.5071616147
H 2.5730107114 -3.0428728734 1.996353727
H 3.4900196727 -2.2882613277 3.3619450278
H -0.1145025738 -1.8028031313 -0.4104223273
H -1.0177229972 -2.1642519052 -1.9571978397
H -1.3137140488 -3.1647437584 -0.4790615851
H -0.8241294631 2.2595591953 2.586120135
H -0.5827780588 2.8128225064 0.8755094734
H 0.3472088347 0.2294247036 2.1029045459
H -0.7180920051 -0.0456787835 0.6728102649
$end

$rem
JOBTYPE                   OPT
METHOD                    B3LYP
DFT_D                     d3_op
BASIS                     STO-3G
GEOM_OPT_MAX_CYCLES       100
GEOM_OPT_TOL_GRADIENT     300
GEOM_OPT_TOL_DISPLACEMENT 1200
GEOM_OPT_TOL_ENERGY       100
SYMMETRY                  False
THRESH                    12
SCF_CONVERGENCE           8
MAX_SUB_FILE_NUM          128
MEM_STATIC                400
MEM_TOTAL                 4000
$end
--------------------------------------------------------------

   16   -1510.2860321658      5.78E-09 Convergence criterion met
 Total energy in the final basis set = -1510.28603217
   14   -1510.2607073245      5.71E-09 Convergence criterion met
 Total energy in the final basis set = -1510.26070732
   14   -1510.2850180645      3.18E-09 Convergence criterion met
 Total energy in the final basis set = -1510.28501806
   14   -1510.2848252478      4.21E-09 Convergence criterion met
 Total energy in the final basis set = -1510.28482525
   13   -1510.2860457976      9.61E-09 Convergence criterion met
 Total energy in the final basis set = -1510.28604580
   14   -1510.2858421177      2.87E-09 Convergence criterion met
 Total energy in the final basis set = -1510.28584212
   13   -1510.2866880569      6.58E-09 Convergence criterion met
 Total energy in the final basis set = -1510.28668806
   13   -1510.2862824753      8.85E-09 Convergence criterion met
   11   -1510.2924837454      2.11E-09 Convergence criterion met
 Total energy in the final basis set = -1510.29248375
    9   -1510.2924838402      9.65E-09 Convergence criterion met
 Total energy in the final basis set = -1510.29248384
   11   -1510.2924811706      3.03E-09 Convergence criterion met
 Total energy in the final basis set = -1510.29248117
    9   -1510.2924842772      9.85E-09 Convergence criterion met
 Total energy in the final basis set = -1510.29248428
   10   -1510.2924945207      8.43E-09 Convergence criterion met
 Total energy in the final basis set = -1510.29249452
   10   -1510.2925044296      8.57E-09 Convergence criterion met
 Total energy in the final basis set = -1510.29250443

             Standard Nuclear Orientation (Angstroms)
    I     Atom           X                Y                Z
 ----------------------------------------------------------------
    1      O       2.7151830160    -3.0124242915     0.2333548765
    2      C       3.1194162707    -1.8379970231     0.3766510969
    3      C       3.1609726582    -0.7178644219    -0.7187982434
    4      C       2.2411862693     0.5324765041    -0.3937360229
    5      C       1.4022045422     0.3691581734     0.9180002541
    6      O       1.2167821807     1.6399260212     1.5388763066
    7      C       0.1845789311     1.5539860450     2.5983418055
    8      C      -1.0010499756     2.5329282218     2.2421982688
    9      O      -2.2324773528     1.9038310453     1.7044338264
   10      C      -2.0295456122     1.3206376300     0.4145770555
   11      C      -3.4302312000     0.9763324865    -0.2010913353
   12      C      -3.3646425404    -0.0454388954    -1.4108685319
   13      C      -1.9291468036    -0.6202028959    -1.7048947542
   14      O      -1.1988396510    -0.3431338844    -2.6833329904
   15      O       3.6700710216    -1.3169841300     1.5924858849
   16      O      -1.6342702525    -1.5988230991    -0.7107401497
   17      O      -0.9154496277     1.1684520429    -0.1328079427
   18      C      -0.2772264460    -2.1656793618    -0.9035390667
   19      C      -4.4052168074     0.2174917205     0.7978186534
   20      C      -5.8768351949     0.3679357735     0.2448197913
   21      C      -5.8385328592    -0.6182795292    -0.9815155872
   22      C      -4.3592759003    -1.1698938789    -0.8872200218
   23      O      -4.0967011785    -1.2102434302     0.5704742230
   24      H      -3.8793788888     1.9350556854    -0.5227669350
   25      H      -3.7308747401     0.4250230696    -2.3401709573
   26      H      -4.2625793678     0.4884762292     1.8616732018
   27      H      -6.6067273497     0.0413210088     1.0027835585
   28      H      -6.1098326819     1.4044717318    -0.0468819412
   29      H      -6.5635093741    -1.4391727416    -0.8630591432
   30      H      -6.0318781464    -0.1123956521    -1.9410239705
   31      H      -4.1981102876    -2.1687631621    -1.3359942464
   32      O       0.9199743079    -0.7004874302     1.3653907737
   33      C       3.5466776164    -2.3263937372     2.6673921126
   34      C       4.5831843924    -0.0114311489    -0.8061545248
   35      C       4.6497414489     0.8083731816    -2.1563343524
   36      C       3.7441870902     2.0472119215    -1.8067467197
   37      C       3.3125399642     1.6993433708    -0.3287413237
   38      O       4.5106625471     1.0372622695     0.2361064912
   39      H       2.8731203251    -1.1814795356    -1.6782319466
   40      H       1.5106912378     0.7048692573    -1.2072126809
   41      H       4.0436242436    -3.2798772673     2.3956255657
   42      H       5.4422661513    -0.6844017065    -0.6197968153
   43      H       5.6866401268     1.1122964171    -2.3709810864
   44      H       4.2664385672     0.2300965236    -3.0120765978
   45      H       4.3189045045     2.9867036864    -1.8291882690
   46      H       2.8775519970     2.1448447680    -2.4798424765
   47      H       3.0041031026     2.5566534273     0.2994832440
   48      H       2.4815671248    -2.5360875782     2.8972861157
   49      H       4.0391263940    -1.8899191131     3.5556518037
   50      H       0.3542848335    -1.8325851749    -0.0495872013
   51      H       0.1448985085    -1.8069819346    -1.8628471399
   52      H      -0.3585723825    -3.2690290275    -0.9106716543
   53      H      -1.3440561997     3.0446227889     3.1638789460
   54      H      -0.6143843343     3.2974772638     1.5318155399
   55      H       0.6486318590     1.8730466078     3.5548865470
   56      H      -0.1591374452     0.4994042063     2.6872634124
 ----------------------------------------------------------------

    9   -1510.2925056591      3.64E-09 Convergence criterion met
 Total energy in the final basis set = -1510.29250566
 Final energy is   -1510.29250565912
 **  OPTIMIZATION CONVERGED  **

                    Orbital Energies (a.u.)
 --------------------------------------------------------------

 Alpha MOs
 -- Occupied --
-18.945 -18.941 -18.923 -18.912 -18.889 -18.885 -18.884 -18.883
-18.864 -18.852 -10.111 -10.109 -10.090 -10.084 -10.084 -10.076
-10.059 -10.056 -10.056 -10.055 -10.055 -10.040 -10.036 -10.031
-10.030 -10.024 -10.019 -10.017 -10.016 -10.015  -1.026  -1.015
 -1.000  -0.991  -0.967  -0.966  -0.949  -0.942  -0.926  -0.916
 -0.762  -0.759  -0.729  -0.719  -0.714  -0.704  -0.695  -0.652
 -0.639  -0.621  -0.594  -0.580  -0.544  -0.542  -0.535  -0.534
 -0.513  -0.510  -0.486  -0.472  -0.466  -0.459  -0.448  -0.436
 -0.431  -0.429  -0.426  -0.409  -0.406  -0.405  -0.401  -0.400
 -0.389  -0.387  -0.378  -0.363  -0.359  -0.355  -0.346  -0.342
 -0.337  -0.335  -0.331  -0.327  -0.327  -0.320  -0.317  -0.314
 -0.307  -0.304  -0.301  -0.296  -0.293  -0.286  -0.281  -0.272
 -0.271  -0.262  -0.253  -0.243  -0.232  -0.230  -0.227  -0.194
 -0.178  -0.168  -0.166  -0.161  -0.148  -0.142  -0.141  -0.140
 -0.138

          Ground-State Mulliken Net Atomic Charges

     Atom                 Charge (a.u.)
  ----------------------------------------
      1 O                    -0.215127
      2 C                     0.209902
      3 C                    -0.081107
      4 C                    -0.077920
      5 C                     0.233640
      6 O                    -0.168557
      7 C                    -0.055188
      8 C                    -0.049445
      9 O                    -0.171601
     10 C                     0.217163
     11 C                    -0.077821
     12 C                    -0.080577
     13 C                     0.210842
     14 O                    -0.226583
     15 O                    -0.169931
     16 O                    -0.172719
     17 O                    -0.212265
     18 C                    -0.148401
     19 C                     0.024795
     20 C                    -0.143623
     21 C                    -0.144753
     22 C                     0.027325
     23 O                    -0.184886
     24 H                     0.084591
     25 H                     0.081721
     26 H                     0.088408
     27 H                     0.077583
     28 H                     0.072117
     29 H                     0.077513
     30 H                     0.072921
     31 H                     0.085998
     32 O                    -0.216311
     33 C                    -0.128582
     34 C                     0.026303
     35 C                    -0.144109
     36 C                    -0.143862
     37 C                     0.024011
     38 O                    -0.187716
     39 H                     0.085687
     40 H                     0.099913
     41 H                     0.087904
     42 H                     0.082909
     43 H                     0.076932
     44 H                     0.074743
     45 H                     0.076688
     46 H                     0.075873
     47 H                     0.090446
     48 H                     0.090818
     49 H                     0.088207
     50 H                     0.105076
     51 H                     0.087706
     52 H                     0.080911
     53 H                     0.092357
     54 H                     0.092828
     55 H                     0.088623
     56 H                     0.108631
  ----------------------------------------
  Sum of atomic charges =    -0.000000

                    Cartesian Multipole Moments
 -----------------------------------------------------------------
    Charge (ESU x 10^10)
                -0.0000
    Dipole Moment (Debye)
         X      -1.3497      Y       2.8559      Z       0.6476
       Tot       3.2245
    Quadrupole Moments (Debye-Ang)
        XX    -149.8673     XY      -6.1239     YY    -159.2295
        XZ      -0.3768     YZ       2.5948     ZZ    -154.3222

 Total job time:  122.94s(wall), 5863.95s(cpu)
        *  Thank you very much for using Q-Chem.  Have a nice day.  *
