 Q-Chem 5.0, Q-Chem, Inc., Pleasanton, CA (2017)
 Q-Chem 5.0.1 for Intel X86 EM64T Linux

User input:
--------------------------------------------------------------
$molecule
0  1
O -3.94934 -3.66094 2.70899
C -3.26408 -4.56952 2.26188
C -3.36658 -6.02376 2.66595
C -3.84901 -7.01775 1.5968
C -4.00508 -6.47556 0.19331
O -3.9946 -7.50408 -0.70528
C -3.97737 -7.06218 -2.06678
C -3.96647 -8.26174 -3.00863
O -4.98224 -8.10544 -4.01196
C -6.25822 -8.25784 -3.57861
C -7.27829 -8.07766 -4.67754
C -8.27438 -6.93036 -4.45439
C -7.89907 -5.92889 -3.38066
O -8.5628 -5.67375 -2.38621
O -2.29537 -4.26112 1.3556
O -6.739 -5.24212 -3.56567
O -6.5695 -8.5571 -2.43184
C -6.32621 -4.1886 -2.77516
C -6.74655 -7.69482 -6.08273
C -7.75892 -8.11532 -7.14938
C -8.8662 -7.10991 -6.90568
C -8.21417 -6.23987 -5.82658
O -6.8401 -6.29207 -6.1312
H -7.79645 -9.05941 -4.76324
H -9.28701 -7.31284 -4.19621
H -5.75483 -8.13168 -6.32795
H -7.29716 -7.89777 -8.13943
H -8.07053 -9.18157 -7.12073
H -9.02296 -6.52627 -7.83992
H -9.83054 -7.53951 -6.55758
H -8.67328 -5.22674 -5.80584
O -4.16766 -5.30257 -0.11826
C -2.03992 -2.98835 0.88967
C -2.00143 -6.60066 3.05974
C -2.18742 -7.82783 3.9498
C -2.67292 -8.8355 2.9326
C -2.63256 -7.98869 1.65617
O -1.52561 -7.14447 1.85712
H -4.06233 -6.04394 3.53515
H -4.78011 -7.56965 1.85423
H -1.75178 -2.32333 1.73163
H -1.34324 -5.85537 3.55854
H -1.18497 -8.1461 4.31515
H -2.86386 -7.66242 4.81595
H -1.91524 -9.64788 2.85911
H -3.67451 -9.27368 3.13231
H -2.55727 -8.67253 0.78398
H -2.9381 -2.58061 0.37843
H -1.20285 -3.02873 0.16301
H -5.34087 -3.8277 -3.13473
H -6.22808 -4.51244 -1.71778
H -7.05859 -3.35589 -2.8393
H -2.96644 -8.33982 -3.4856
H -4.12836 -9.21908 -2.46166
H -3.10748 -6.40171 -2.28552
H -4.89669 -6.47025 -2.23797
$end

$opt
CONSTRAINT
tors           1           2           3           4    +113.943
tors           3           4           5           6    +159.879
tors           4           5           6           7    -172.980
tors           5           6           7           8    -180.000
tors           6           7           8           9    +130.403
tors           7           8           9          10     -72.008
tors           8           9          10          11    +179.822
tors           9          10          11          12    -119.287
tors          11          12          13          14    -120.621
ENDCONSTRAINT
$end

$rem
JOBTYPE                   OPT
METHOD                    B3LYP
DFT_D                     d3_op
BASIS                     STO-3G
GEOM_OPT_MAX_CYCLES       100
GEOM_OPT_TOL_GRADIENT     300
GEOM_OPT_TOL_DISPLACEMENT 1200
GEOM_OPT_TOL_ENERGY       100
SYMMETRY                  False
THRESH                    12
SCF_CONVERGENCE           8
MAX_SUB_FILE_NUM          128
MEM_STATIC                400
MEM_TOTAL                 4000
$end
--------------------------------------------------------------

   15   -1510.1573306179      6.64E-09 Convergence criterion met
 Total energy in the final basis set = -1510.15733062
   14   -1510.2259619970      5.47E-09 Convergence criterion met
 Total energy in the final basis set = -1510.22596200
   14   -1510.2622579194      6.13E-09 Convergence criterion met
 Total energy in the final basis set = -1510.26225792
   14   -1510.2771432790      2.48E-09 Convergence criterion met
 Total energy in the final basis set = -1510.27714328
   13   -1510.2811502034      9.80E-09 Convergence criterion met
 Total energy in the final basis set = -1510.28115020
   13   -1510.2816677436      4.21E-09 Convergence criterion met
 Total energy in the final basis set = -1510.28166774
   12   -1510.2825942391      7.64E-09 Convergence criterion met
 Total energy in the final basis set = -1510.28259424
   12   -1510.2829427953      5.70E-09 Convergence criterion met
   11   -1510.2862984777      6.30E-09 Convergence criterion met
 Total energy in the final basis set = -1510.28629848
   11   -1510.2863102009      3.44E-09 Convergence criterion met
 Total energy in the final basis set = -1510.28631020
    9   -1510.2863123592      8.66E-09 Convergence criterion met
 Total energy in the final basis set = -1510.28631236
    9   -1510.2863104352      6.69E-09 Convergence criterion met
 Total energy in the final basis set = -1510.28631044
    9   -1510.2863124259      3.58E-09 Convergence criterion met
 Total energy in the final basis set = -1510.28631243
    9   -1510.2863138162      3.30E-09 Convergence criterion met
 Total energy in the final basis set = -1510.28631382

             Standard Nuclear Orientation (Angstroms)
    I     Atom           X                Y                Z
 ----------------------------------------------------------------
    1      O       3.9477401322    -2.9390982002    -0.4157191211
    2      C       4.0447040147    -1.7873955502     0.0605055695
    3      C       4.3167094724    -0.4633601712    -0.7412361063
    4      C       3.1124717457     0.5672542339    -0.7303362808
    5      C       1.8581168521     0.0300718839     0.0393704289
    6      O       1.0228786191     1.1175976560     0.4144224739
    7      C      -0.0800465259     0.6397195153     1.2889019991
    8      C      -0.9597193416     1.8915748471     1.6628102882
    9      O      -2.3870960036     1.5823503302     1.4128880046
   10      C      -2.6236173156     1.5408689118     0.0010257493
   11      C      -4.1285961953     1.2103164057    -0.2852500243
   12      C      -4.2793920007    -0.1400575912    -1.1135375513
   13      C      -2.9471042188    -0.8300526990    -1.5742099276
   14      O      -2.6341843229    -1.0632502435    -2.7633949547
   15      O       4.0391257124    -1.4884622206     1.4634843521
   16      O      -2.1494271797    -1.2214757232    -0.4432159003
   17      O      -1.7445414293     1.7660397313    -0.8596661757
   18      C      -1.0405494214    -2.1084802940    -0.8918519383
   19      C      -4.9538772389     0.8528953367     1.0184553946
   20      C      -6.4915168199     0.8261376183     0.6561810348
   21      C      -6.6039504657    -0.5446999804    -0.1081135517
   22      C      -5.1010517266    -1.0290958740    -0.0785249131
   23      O      -4.6185248607    -0.5728823234     1.2432291759
   24      H      -4.5673625195     2.0589485456    -0.8411995862
   25      H      -4.8644097791     0.0356577637    -2.0338502588
   26      H      -4.6843217731     1.4574930558     1.9048196791
   27      H      -7.1018539039     0.8280975228     1.5730666906
   28      H      -6.7871663519     1.6862919730     0.0344778409
   29      H      -7.2465137984    -1.2568983435     0.4337910247
   30      H      -6.9874660842    -0.4320879470    -1.1347177180
   31      H      -4.9531625575    -2.1207570796    -0.1898117320
   32      O       1.5879761101    -1.1737892118     0.2740638836
   33      C       3.7140938429    -2.7117112488     2.2291053487
   34      C       5.4551455221     0.4216568037    -0.0701269016
   35      C       5.9360604872     1.4990310532    -1.1218235054
   36      C       4.7361907400     2.5169062512    -1.0884266108
   37      C       3.7832174249     1.8261983848    -0.0359659989
   38      O       4.7209131308     1.2220147074     0.9371311095
   39      H       4.5781551847    -0.7536096857    -1.7738929743
   40      H       2.7910923737     0.8121652606    -1.7603292996
   41      H       4.4189047573    -3.5379239689     2.0037938295
   42      H       6.2635149110    -0.1601342540     0.4130450246
   43      H       6.8746791777     1.9691693029    -0.7881097995
   44      H       6.0958379773     1.0615537938    -2.1202016488
   45      H       5.0558812820     3.5071210488    -0.7265199574
   46      H       4.2515916301     2.6387481814    -2.0703223689
   47      H       3.0629178393     2.4956070982     0.4725646805
   48      H       2.6830565790    -3.0575250881     2.0088474222
   49      H       3.7924472769    -2.4359902639     3.2968013524
   50      H      -0.0993871920    -1.7991823647    -0.3845103282
   51      H      -0.9345048548    -2.0328134547    -1.9917667291
   52      H      -1.2846497628    -3.1533634010    -0.6153859879
   53      H      -0.8893905303     2.1327648624     2.7410302004
   54      H      -0.6232705339     2.7618582045     1.0583108422
   55      H       0.3385979382     0.1524066955     2.1951123185
   56      H      -0.7268311750    -0.0974025170     0.7610515908
 ----------------------------------------------------------------

    8   -1510.2863146606      8.25E-09 Convergence criterion met
 Total energy in the final basis set = -1510.28631466
 Final energy is   -1510.28631466058
 **  OPTIMIZATION CONVERGED  **

                    Orbital Energies (a.u.)
 --------------------------------------------------------------

 Alpha MOs
 -- Occupied --
-18.947 -18.939 -18.927 -18.920 -18.888 -18.887 -18.887 -18.876
-18.874 -18.860 -10.111 -10.103 -10.096 -10.089 -10.078 -10.072
-10.061 -10.059 -10.059 -10.058 -10.053 -10.041 -10.041 -10.037
-10.037 -10.033 -10.021 -10.020 -10.020 -10.019  -1.024  -1.016
 -1.004  -0.998  -0.970  -0.969  -0.946  -0.940  -0.930  -0.923
 -0.764  -0.762  -0.729  -0.722  -0.715  -0.706  -0.695  -0.651
 -0.648  -0.618  -0.597  -0.582  -0.546  -0.545  -0.538  -0.537
 -0.518  -0.512  -0.489  -0.472  -0.468  -0.462  -0.446  -0.443
 -0.434  -0.432  -0.429  -0.413  -0.408  -0.405  -0.403  -0.400
 -0.391  -0.383  -0.370  -0.368  -0.362  -0.357  -0.349  -0.344
 -0.341  -0.340  -0.334  -0.331  -0.329  -0.323  -0.322  -0.314
 -0.308  -0.305  -0.305  -0.300  -0.298  -0.290  -0.282  -0.276
 -0.272  -0.262  -0.256  -0.242  -0.242  -0.234  -0.233  -0.185
 -0.181  -0.171  -0.163  -0.161  -0.159  -0.150  -0.144  -0.143
 -0.140

          Ground-State Mulliken Net Atomic Charges

     Atom                 Charge (a.u.)
  ----------------------------------------
      1 O                    -0.217599
      2 C                     0.212489
      3 C                    -0.081036
      4 C                    -0.077740
      5 C                     0.222009
      6 O                    -0.165484
      7 C                    -0.052998
      8 C                    -0.047743
      9 O                    -0.167611
     10 C                     0.210496
     11 C                    -0.078366
     12 C                    -0.079309
     13 C                     0.208477
     14 O                    -0.210782
     15 O                    -0.171806
     16 O                    -0.176051
     17 O                    -0.214951
     18 C                    -0.151215
     19 C                     0.024337
     20 C                    -0.144838
     21 C                    -0.143498
     22 C                     0.026048
     23 O                    -0.186514
     24 H                     0.086116
     25 H                     0.085562
     26 H                     0.091053
     27 H                     0.077948
     28 H                     0.073075
     29 H                     0.078119
     30 H                     0.074185
     31 H                     0.083625
     32 O                    -0.213674
     33 C                    -0.128430
     34 C                     0.026512
     35 C                    -0.144367
     36 C                    -0.143682
     37 C                     0.024431
     38 O                    -0.187426
     39 H                     0.084127
     40 H                     0.089060
     41 H                     0.087185
     42 H                     0.084482
     43 H                     0.077610
     44 H                     0.074063
     45 H                     0.077831
     46 H                     0.074154
     47 H                     0.088710
     48 H                     0.090251
     49 H                     0.087025
     50 H                     0.102867
     51 H                     0.096885
     52 H                     0.079408
     53 H                     0.092377
     54 H                     0.098344
     55 H                     0.088197
     56 H                     0.108065
  ----------------------------------------
  Sum of atomic charges =     0.000000

                    Cartesian Multipole Moments
 -----------------------------------------------------------------
    Charge (ESU x 10^10)
                 0.0000
    Dipole Moment (Debye)
         X      -1.1635      Y       2.1824      Z       0.6645
       Tot       2.5609
    Quadrupole Moments (Debye-Ang)
        XX    -141.8251     XY       0.9686     YY    -159.7419
        XZ      -2.8941     YZ      -2.9952     ZZ    -163.1522

 Total job time:  91.30s(wall), 4339.00s(cpu)
        *  Thank you very much for using Q-Chem.  Have a nice day.  *
