 Q-Chem 5.0, Q-Chem, Inc., Pleasanton, CA (2017)
 Q-Chem 5.0.1 for Intel X86 EM64T Linux

User input:
--------------------------------------------------------------
$molecule
0  1
O 3.9477401322 -2.9390982002 -0.4157191211
C 4.0447040147 -1.7873955502 0.0605055695
C 4.3167094724 -0.4633601712 -0.7412361063
C 3.1124717457 0.5672542339 -0.7303362808
C 1.8581168521 0.0300718839 0.0393704289
O 1.0228786191 1.117597656 0.4144224739
C -0.0800465259 0.6397195153 1.2889019991
C -0.9597193416 1.8915748471 1.6628102882
O -2.3870960036 1.5823503302 1.4128880046
C -2.6236173156 1.5408689118 0.0010257493
C -4.1285961953 1.2103164057 -0.2852500243
C -4.2793920007 -0.1400575912 -1.1135375513
C -2.9471042188 -0.830052699 -1.5742099276
O -2.6341843229 -1.0632502435 -2.7633949547
O 4.0391257124 -1.4884622206 1.4634843521
O -2.1494271797 -1.2214757232 -0.4432159003
O -1.7445414293 1.7660397313 -0.8596661757
C -1.0405494214 -2.108480294 -0.8918519383
C -4.9538772389 0.8528953367 1.0184553946
C -6.4915168199 0.8261376183 0.6561810348
C -6.6039504657 -0.5446999804 -0.1081135517
C -5.1010517266 -1.029095874 -0.0785249131
O -4.6185248607 -0.5728823234 1.2432291759
H -4.5673625195 2.0589485456 -0.8411995862
H -4.8644097791 0.0356577637 -2.0338502588
H -4.6843217731 1.4574930558 1.9048196791
H -7.1018539039 0.8280975228 1.5730666906
H -6.7871663519 1.686291973 0.0344778409
H -7.2465137984 -1.2568983435 0.4337910247
H -6.9874660842 -0.432087947 -1.134717718
H -4.9531625575 -2.1207570796 -0.189811732
O 1.5879761101 -1.1737892118 0.2740638836
C 3.7140938429 -2.7117112488 2.2291053487
C 5.4551455221 0.4216568037 -0.0701269016
C 5.9360604872 1.4990310532 -1.1218235054
C 4.73619074 2.5169062512 -1.0884266108
C 3.7832174249 1.8261983848 -0.0359659989
O 4.7209131308 1.2220147074 0.9371311095
H 4.5781551847 -0.7536096857 -1.7738929743
H 2.7910923737 0.8121652606 -1.7603292996
H 4.4189047573 -3.5379239689 2.0037938295
H 6.263514911 -0.160134254 0.4130450246
H 6.8746791777 1.9691693029 -0.7881097995
H 6.0958379773 1.0615537938 -2.1202016488
H 5.055881282 3.5071210488 -0.7265199574
H 4.2515916301 2.6387481814 -2.0703223689
H 3.0629178393 2.4956070982 0.4725646805
H 2.683056579 -3.0575250881 2.0088474222
H 3.7924472769 -2.4359902639 3.2968013524
H -0.099387192 -1.7991823647 -0.3845103282
H -0.9345048548 -2.0328134547 -1.9917667291
H -1.2846497628 -3.153363401 -0.6153859879
H -0.8893905303 2.1327648624 2.7410302004
H -0.6232705339 2.7618582045 1.0583108422
H 0.3385979382 0.1524066955 2.1951123185
H -0.726831175 -0.097402517 0.7610515908
$end

$rem
JOBTYPE                   OPT
METHOD                    B3LYP
DFT_D                     d3_op
BASIS                     STO-3G
GEOM_OPT_MAX_CYCLES       100
GEOM_OPT_TOL_GRADIENT     300
GEOM_OPT_TOL_DISPLACEMENT 1200
GEOM_OPT_TOL_ENERGY       100
SYMMETRY                  False
THRESH                    12
SCF_CONVERGENCE           8
MAX_SUB_FILE_NUM          128
MEM_STATIC                400
MEM_TOTAL                 4000
$end
--------------------------------------------------------------

   16   -1510.2863080938      5.88E-09 Convergence criterion met
 Total energy in the final basis set = -1510.28630809
   15   -1510.2100119863      6.41E-09 Convergence criterion met
 Total energy in the final basis set = -1510.21001199
   14   -1510.2856371519      9.40E-09 Convergence criterion met
 Total energy in the final basis set = -1510.28563715
   14   -1510.2839599338      4.02E-09 Convergence criterion met
 Total energy in the final basis set = -1510.28395993
   14   -1510.2857375607      8.01E-09 Convergence criterion met
 Total energy in the final basis set = -1510.28573756
   14   -1510.2852922539      2.71E-09 Convergence criterion met
 Total energy in the final basis set = -1510.28529225
   14   -1510.2862239323      2.18E-09 Convergence criterion met
 Total energy in the final basis set = -1510.28622393
   14   -1510.2859055183      3.10E-09 Convergence criterion met
    9   -1510.2924701077      6.35E-09 Convergence criterion met
 Total energy in the final basis set = -1510.29247011
    9   -1510.2924701878      4.73E-09 Convergence criterion met
 Total energy in the final basis set = -1510.29247019
    9   -1510.2924668040      7.00E-09 Convergence criterion met
 Total energy in the final basis set = -1510.29246680
    9   -1510.2924666400      5.75E-09 Convergence criterion met
 Total energy in the final basis set = -1510.29246664
    9   -1510.2924668116      4.55E-09 Convergence criterion met
 Total energy in the final basis set = -1510.29246681
    9   -1510.2924703527      5.24E-09 Convergence criterion met
 Total energy in the final basis set = -1510.29247035

             Standard Nuclear Orientation (Angstroms)
    I     Atom           X                Y                Z
 ----------------------------------------------------------------
    1      O       2.7420931863    -3.0361656355     0.0644362132
    2      C       3.1291519152    -1.8634569284     0.2597118824
    3      C       3.1393791345    -0.6921707070    -0.7813730558
    4      C       2.2035724601     0.5260372618    -0.3859031795
    5      C       1.3949113861     0.2905380548     0.9337420322
    6      O       1.2304552182     1.5222103982     1.6349272856
    7      C       0.2090877352     1.3809011202     2.6989549296
    8      C      -0.9774681065     2.3815207345     2.4109128006
    9      O      -2.2124046436     1.7895561069     1.8387547873
   10      C      -2.0132987893     1.2918460682     0.5133311443
   11      C      -3.4122991760     0.9916335160    -0.1274212955
   12      C      -3.3380143718     0.0611849761    -1.4083115578
   13      C      -1.9019863012    -0.5014067310    -1.7263122536
   14      O      -1.1561481507    -0.1616704114    -2.6727409037
   15      O       3.6834261751    -1.3912968256     1.4937557694
   16      O      -1.6296376327    -1.5534724833    -0.8031055848
   17      O      -0.8998259230     1.1719609424    -0.0434214691
   18      C      -0.2801315439    -2.1270755608    -1.0249923388
   19      C      -4.3905470841     0.1605158440     0.8097401003
   20      C      -5.8611210812     0.3552020719     0.2673058702
   21      C      -5.8180717114    -0.5267776704    -1.0355736984
   22      C      -4.3421932025    -1.0929494207    -0.9769160125
   23      O      -4.0857010154    -1.2467632603     0.4741282927
   24      H      -3.8628146851     1.9701631986    -0.3800960218
   25      H      -3.6917798753     0.5991238977    -2.3051653483
   26      H      -4.2495279625     0.3492344948     1.8915089743
   27      H      -6.5916737701    -0.0337077266     0.9945472289
   28      H      -6.0948504894     1.4120901745     0.0620006145
   29      H      -6.5485503800    -1.3501810988    -0.9910971191
   30      H      -6.0002831559     0.0581525587    -1.9513038005
   31      H      -4.1848320090    -2.0555784768    -1.5002332412
   32      O       0.9183705588    -0.8024279197     1.3275603403
   33      C       3.5897337190    -2.4529716948     2.5202074910
   34      C       4.5483113807     0.0415758240    -0.8566806797
   35      C       4.5824137791     0.9145207291    -2.1737853047
   36      C       3.6565353624     2.1198641371    -1.7643621115
   37      C       3.2550333185     1.7084832878    -0.2935376064
   38      O       4.4729101256     1.0466349619     0.2273309281
   39      H       2.8457371916    -1.1154553120    -1.7576254463
   40      H       1.4518883830     0.7175046101    -1.1757688642
   41      H       4.0983121633    -3.3839131024     2.1968949791
   42      H       5.4206852023    -0.6237339172    -0.7080278414
   43      H       5.6102691087     1.2479287558    -2.3880760737
   44      H       4.2001873620     0.3629016992    -3.0474667599
   45      H       4.2106748658     3.0718945581    -1.7605353203
   46      H       2.7769948736     2.2232922749    -2.4196385476
   47      H       2.9425600747     2.5359615026     0.3716349225
   48      H       2.5310982294    -2.6910623229     2.7522746017
   49      H       4.0861289681    -2.0515217865     3.4226326180
   50      H       0.3508891511    -1.8604814315    -0.1475352105
   51      H       0.1545979963    -1.7134424701    -1.9561979343
   52      H      -0.3789356705    -3.2261334465    -1.1050827354
   53      H      -1.3159882020     2.8338841798     3.3647458162
   54      H      -0.5932516561     3.1890120285     1.7484709765
   55      H       0.6843588958     1.6457705505     3.6664747068
   56      H      -0.1375640701     0.3241060808     2.7339766049
 ----------------------------------------------------------------

    9   -1510.2924715889      3.44E-09 Convergence criterion met
 Total energy in the final basis set = -1510.29247159
 Final energy is   -1510.29247158887
 **  OPTIMIZATION CONVERGED  **

                    Orbital Energies (a.u.)
 --------------------------------------------------------------

 Alpha MOs
 -- Occupied --
-18.945 -18.940 -18.924 -18.912 -18.889 -18.886 -18.883 -18.882
-18.864 -18.852 -10.112 -10.109 -10.090 -10.084 -10.084 -10.076
-10.059 -10.056 -10.056 -10.055 -10.054 -10.040 -10.035 -10.031
-10.031 -10.025 -10.019 -10.018 -10.016 -10.015  -1.026  -1.015
 -1.000  -0.992  -0.967  -0.966  -0.950  -0.942  -0.926  -0.916
 -0.762  -0.759  -0.728  -0.719  -0.714  -0.704  -0.695  -0.652
 -0.639  -0.621  -0.594  -0.580  -0.544  -0.542  -0.535  -0.533
 -0.513  -0.510  -0.486  -0.472  -0.466  -0.459  -0.448  -0.436
 -0.431  -0.429  -0.426  -0.409  -0.406  -0.404  -0.402  -0.400
 -0.389  -0.387  -0.378  -0.363  -0.359  -0.355  -0.346  -0.342
 -0.337  -0.335  -0.331  -0.327  -0.326  -0.320  -0.317  -0.314
 -0.306  -0.304  -0.300  -0.296  -0.293  -0.286  -0.281  -0.272
 -0.271  -0.262  -0.253  -0.243  -0.232  -0.230  -0.228  -0.194
 -0.178  -0.168  -0.166  -0.161  -0.148  -0.142  -0.141  -0.139
 -0.138

          Ground-State Mulliken Net Atomic Charges

     Atom                 Charge (a.u.)
  ----------------------------------------
      1 O                    -0.215049
      2 C                     0.209710
      3 C                    -0.081100
      4 C                    -0.078000
      5 C                     0.233800
      6 O                    -0.168559
      7 C                    -0.055115
      8 C                    -0.049479
      9 O                    -0.171345
     10 C                     0.217286
     11 C                    -0.077915
     12 C                    -0.080496
     13 C                     0.210954
     14 O                    -0.227020
     15 O                    -0.169926
     16 O                    -0.172705
     17 O                    -0.212269
     18 C                    -0.148307
     19 C                     0.024788
     20 C                    -0.143533
     21 C                    -0.144836
     22 C                     0.027472
     23 O                    -0.184615
     24 H                     0.084689
     25 H                     0.081733
     26 H                     0.088281
     27 H                     0.077689
     28 H                     0.072153
     29 H                     0.077544
     30 H                     0.072893
     31 H                     0.085893
     32 O                    -0.217036
     33 C                    -0.128621
     34 C                     0.026268
     35 C                    -0.144061
     36 C                    -0.143907
     37 C                     0.024038
     38 O                    -0.187912
     39 H                     0.085567
     40 H                     0.100727
     41 H                     0.087993
     42 H                     0.082754
     43 H                     0.076839
     44 H                     0.074745
     45 H                     0.076536
     46 H                     0.076123
     47 H                     0.090492
     48 H                     0.090743
     49 H                     0.088273
     50 H                     0.105250
     51 H                     0.087438
     52 H                     0.080851
     53 H                     0.092407
     54 H                     0.092855
     55 H                     0.088673
     56 H                     0.108353
  ----------------------------------------
  Sum of atomic charges =    -0.000000

                    Cartesian Multipole Moments
 -----------------------------------------------------------------
    Charge (ESU x 10^10)
                -0.0000
    Dipole Moment (Debye)
         X      -1.4196      Y       2.7873      Z       0.8022
       Tot       3.2293
    Quadrupole Moments (Debye-Ang)
        XX    -150.0967     XY      -6.3127     YY    -159.8079
        XZ      -0.4869     YZ       2.3959     ZZ    -153.6168

 Total job time:  133.04s(wall), 6343.63s(cpu)
        *  Thank you very much for using Q-Chem.  Have a nice day.  *
