 Q-Chem 5.0, Q-Chem, Inc., Pleasanton, CA (2017)
 Q-Chem 5.0.1 for Intel X86 EM64T Linux

User input:
--------------------------------------------------------------
$molecule
0  1
O -3.94934 -3.66094 2.70899
C -3.26408 -4.56952 2.26188
C -3.36658 -6.02376 2.66595
C -3.86105 -7.01586 1.60055
C -4.02833 -6.47239 0.19885
O -4.07137 -7.50301 -0.69635
C -4.01423 -7.06807 -2.05899
C -4.06678 -8.2696 -2.99691
O -5.07971 -8.06749 -3.99491
C -6.35556 -8.04968 -3.53554
C -7.36794 -7.77174 -4.62113
C -8.19595 -6.4938 -4.42228
C -7.66477 -5.51562 -3.39383
O -8.27719 -5.11418 -2.41488
O -2.29092 -4.25961 1.36066
O -6.42892 -4.99716 -3.62901
O -6.67941 -8.27987 -2.37627
C -5.8787 -3.94904 -2.91906
C -6.82093 -7.51118 -6.04848
C -7.9037 -7.82726 -7.08151
C -8.86062 -6.67441 -6.85512
C -8.07398 -5.86449 -5.81986
O -6.72651 -6.11126 -6.14639
H -8.01285 -8.67834 -4.66363
H -9.24554 -6.72519 -4.13395
H -5.90239 -8.08579 -6.29476
H -7.43888 -7.70715 -8.08663
H -8.3546 -8.84028 -7.00895
H -8.95853 -6.1067 -7.80703
H -9.86581 -6.95831 -6.47478
H -8.3926 -4.79861 -5.82811
O -4.13804 -5.29541 -0.11845
C -2.03375 -2.9862 0.89731
C -2.00009 -6.60738 3.04585
C -2.18277 -7.83597 3.93497
C -2.68088 -8.84029 2.9201
C -2.64941 -7.9913 1.6451
O -1.53759 -7.15116 1.83764
H -4.05481 -6.04307 3.54114
H -4.79455 -7.55912 1.86776
H -1.75008 -2.3219 1.74134
H -1.33429 -5.86581 3.54002
H -1.17836 -8.15871 4.29085
H -2.85089 -7.66982 4.80741
H -1.92664 -9.65499 2.83781
H -3.6821 -9.27545 3.12814
H -2.5868 -8.67121 0.76868
H -2.92961 -2.57837 0.38203
H -1.19312 -3.02546 0.1747
H -4.85751 -3.74615 -3.30167
H -5.81733 -4.2005 -1.84015
H -6.4985 -3.03642 -3.04873
H -3.07561 -8.40979 -3.47812
H -4.2873 -9.20921 -2.44015
H -3.09655 -6.4721 -2.26731
H -4.8811 -6.40748 -2.24005
$end

$opt
CONSTRAINT
tors           1           2           3           4    +113.409
tors           3           4           5           6    +161.805
tors           4           5           6           7    -170.637
tors           5           6           7           8    -180.000
tors           6           7           8           9    +129.266
tors           7           8           9          10     -66.920
tors           8           9          10          11    +177.402
tors           9          10          11          12    -118.447
tors          11          12          13          14    -122.527
ENDCONSTRAINT
$end

$rem
JOBTYPE                   OPT
METHOD                    B3LYP
DFT_D                     d3_op
BASIS                     STO-3G
GEOM_OPT_MAX_CYCLES       100
GEOM_OPT_TOL_GRADIENT     300
GEOM_OPT_TOL_DISPLACEMENT 1200
GEOM_OPT_TOL_ENERGY       100
SYMMETRY                  False
THRESH                    12
SCF_CONVERGENCE           8
MAX_SUB_FILE_NUM          128
MEM_STATIC                400
MEM_TOTAL                 4000
$end
--------------------------------------------------------------

   15   -1510.1570342185      6.50E-09 Convergence criterion met
 Total energy in the final basis set = -1510.15703422
   14   -1510.2257319945      5.72E-09 Convergence criterion met
 Total energy in the final basis set = -1510.22573199
   14   -1510.2620390233      6.88E-09 Convergence criterion met
 Total energy in the final basis set = -1510.26203902
   14   -1510.2768871754      5.56E-09 Convergence criterion met
 Total energy in the final basis set = -1510.27688718
   14   -1510.2791593707      5.20E-09 Convergence criterion met
 Total energy in the final basis set = -1510.27915937
   13   -1510.2801750571      9.69E-09 Convergence criterion met
 Total energy in the final basis set = -1510.28017506
   14   -1510.2818153782      3.63E-09 Convergence criterion met
 Total energy in the final basis set = -1510.28181538
   13   -1510.2822342315      5.93E-09 Convergence criterion met
   11   -1510.2863636008      4.44E-09 Convergence criterion met
 Total energy in the final basis set = -1510.28636360
   10   -1510.2863923775      6.48E-09 Convergence criterion met
 Total energy in the final basis set = -1510.28639238
   10   -1510.2864124906      5.17E-09 Convergence criterion met
 Total energy in the final basis set = -1510.28641249
   11   -1510.2864319148      2.62E-09 Convergence criterion met
 Total energy in the final basis set = -1510.28643191
   10   -1510.2864490579      3.62E-09 Convergence criterion met
 Total energy in the final basis set = -1510.28644906
    9   -1510.2864572881      8.44E-09 Convergence criterion met
 Total energy in the final basis set = -1510.28645729

             Standard Nuclear Orientation (Angstroms)
    I     Atom           X                Y                Z
 ----------------------------------------------------------------
    1      O       3.8981965748    -2.9202655537    -0.4968139103
    2      C       4.0084390432    -1.7860270034     0.0170221825
    3      C       4.3205227648    -0.4440213100    -0.7407364637
    4      C       3.1340636385     0.6065771298    -0.7337459596
    5      C       1.8514869879     0.0751131024    -0.0076497954
    6      O       1.0101901633     1.1687432846     0.3303026460
    7      C      -0.0995001902     0.7234498386     1.2138010110
    8      C      -0.9714061890     1.9962968304     1.5317205603
    9      O      -2.4028605517     1.7238061310     1.2644118463
   10      C      -2.6043281889     1.5331798720    -0.1405708178
   11      C      -4.1048057179     1.1789322068    -0.4252635667
   12      C      -4.2528496968    -0.2588486523    -1.0881394775
   13      C      -2.9282978702    -1.0196406251    -1.4462595902
   14      O      -2.6275775241    -1.4262648469    -2.5914533788
   15      O       4.0016849832    -1.5338533736     1.4294681607
   16      O      -2.1320368397    -1.2677785482    -0.2745455153
   17      O      -1.7026023421     1.6527581284    -0.9988363414
   18      C      -1.0538793120    -2.2446475833    -0.5965321376
   19      C      -4.9665979875     0.9912448681     0.8908415912
   20      C      -6.4950071902     0.9302749175     0.4934001949
   21      C      -6.6015115502    -0.5243049434    -0.0970487595
   22      C      -5.1041802969    -1.0105897487     0.0294903258
   23      O      -4.6501540517    -0.3982465901     1.2970695247
   24      H      -4.5211883143     1.9568975879    -1.0910303118
   25      H      -4.8221349460    -0.1886219826    -2.0318595101
   26      H      -4.7133270740     1.6990795381     1.7023716292
   27      H      -7.1299448227     1.0534093501     1.3849499467
   28      H      -6.7622386203     1.7068302341    -0.2411112556
   29      H      -7.2631305565    -1.1597595037     0.5133382689
   30      H      -6.9589681513    -0.5390433032    -1.1390083584
   31      H      -4.9631114318    -2.1084052104     0.0556084542
   32      O       1.5840172187    -1.1260670275     0.2437925751
   33      C       3.6544633111    -2.7767844706     2.1523016182
   34      C       5.4543776926     0.4016632309    -0.0149099350
   35      C       5.9809022239     1.5009402949    -1.0216237885
   36      C       4.7993097921     2.5401116265    -0.9860180503
   37      C       3.8057881449     1.8332154481     0.0167986717
   38      O       4.7062404805     1.1844107048     0.9959758294
   39      H       4.6044257339    -0.7102726305    -1.7739252850
   40      H       2.8456759186     0.8877214912    -1.7641087002
   41      H       4.3484291808    -3.6053716311     1.9030860963
   42      H       6.2395891960    -0.2076165448     0.4724549853
   43      H       6.9200206603     1.9430928869    -0.6528299465
   44      H       6.1560209294     1.0901246951    -2.0287600040
   45      H       5.1269838044     3.5108750235    -0.5811558942
   46      H       4.3448059125     2.7054339301    -1.9759566919
   47      H       3.0822294458     2.4988584510     0.5257604441
   48      H       2.6197441645    -3.1002451624     1.9160140857
   49      H       3.7311928353    -2.5378454108     3.2289499006
   50      H      -1.2903378096    -3.2052786674    -0.0981495092
   51      H      -0.0809503589    -1.8547556538    -0.2191292489
   52      H      -1.0158351400    -2.3915510678    -1.6936162570
   53      H      -0.9189207023     2.2673844033     2.6039412878
   54      H      -0.6013063797     2.8445155367     0.9146651598
   55      H       0.3149130107     0.2748741176     2.1417289791
   56      H      -0.7463768064    -0.0339013715     0.7139271334
 ----------------------------------------------------------------

    9   -1510.2864596239      8.13E-09 Convergence criterion met
 Total energy in the final basis set = -1510.28645962
 Final energy is   -1510.28645962391
 **  OPTIMIZATION CONVERGED  **

                    Orbital Energies (a.u.)
 --------------------------------------------------------------

 Alpha MOs
 -- Occupied --
-18.947 -18.939 -18.927 -18.919 -18.889 -18.889 -18.887 -18.876
-18.874 -18.859 -10.112 -10.103 -10.097 -10.088 -10.078 -10.071
-10.061 -10.060 -10.059 -10.058 -10.053 -10.041 -10.041 -10.038
-10.034 -10.033 -10.021 -10.020 -10.020 -10.019  -1.024  -1.016
 -1.004  -0.997  -0.971  -0.969  -0.947  -0.940  -0.930  -0.922
 -0.764  -0.762  -0.729  -0.722  -0.715  -0.706  -0.695  -0.651
 -0.647  -0.618  -0.597  -0.582  -0.546  -0.545  -0.538  -0.537
 -0.518  -0.512  -0.489  -0.472  -0.468  -0.462  -0.446  -0.443
 -0.434  -0.432  -0.429  -0.413  -0.408  -0.405  -0.402  -0.400
 -0.391  -0.383  -0.371  -0.367  -0.362  -0.357  -0.348  -0.343
 -0.341  -0.340  -0.334  -0.332  -0.329  -0.323  -0.321  -0.315
 -0.308  -0.305  -0.305  -0.300  -0.299  -0.290  -0.281  -0.276
 -0.271  -0.261  -0.256  -0.242  -0.241  -0.234  -0.234  -0.186
 -0.181  -0.172  -0.163  -0.161  -0.159  -0.151  -0.144  -0.143
 -0.139

          Ground-State Mulliken Net Atomic Charges

     Atom                 Charge (a.u.)
  ----------------------------------------
      1 O                    -0.218425
      2 C                     0.212767
      3 C                    -0.081122
      4 C                    -0.077750
      5 C                     0.223385
      6 O                    -0.165497
      7 C                    -0.054302
      8 C                    -0.047328
      9 O                    -0.167682
     10 C                     0.210617
     11 C                    -0.078337
     12 C                    -0.079463
     13 C                     0.208698
     14 O                    -0.210415
     15 O                    -0.171779
     16 O                    -0.176739
     17 O                    -0.214616
     18 C                    -0.153995
     19 C                     0.024425
     20 C                    -0.144826
     21 C                    -0.143362
     22 C                     0.026029
     23 O                    -0.186594
     24 H                     0.085911
     25 H                     0.085835
     26 H                     0.091133
     27 H                     0.078011
     28 H                     0.073092
     29 H                     0.078066
     30 H                     0.074258
     31 H                     0.083607
     32 O                    -0.211932
     33 C                    -0.128235
     34 C                     0.026576
     35 C                    -0.144413
     36 C                    -0.143661
     37 C                     0.024505
     38 O                    -0.187519
     39 H                     0.084180
     40 H                     0.089204
     41 H                     0.086922
     42 H                     0.084699
     43 H                     0.077588
     44 H                     0.074039
     45 H                     0.077820
     46 H                     0.074139
     47 H                     0.088111
     48 H                     0.089974
     49 H                     0.086906
     50 H                     0.078392
     51 H                     0.105435
     52 H                     0.097168
     53 H                     0.092449
     54 H                     0.096634
     55 H                     0.087348
     56 H                     0.110068
  ----------------------------------------
  Sum of atomic charges =    -0.000000

                    Cartesian Multipole Moments
 -----------------------------------------------------------------
    Charge (ESU x 10^10)
                -0.0000
    Dipole Moment (Debye)
         X      -1.1239      Y       2.3045      Z       0.6101
       Tot       2.6355
    Quadrupole Moments (Debye-Ang)
        XX    -141.6314     XY       1.3000     YY    -159.0316
        XZ      -2.1156     YZ      -4.5332     ZZ    -163.7931

 Total job time:  111.90s(wall), 5329.92s(cpu)
        *  Thank you very much for using Q-Chem.  Have a nice day.  *
