 Q-Chem 5.0, Q-Chem, Inc., Pleasanton, CA (2017)
 Q-Chem 5.0.1 for Intel X86 EM64T Linux

User input:
--------------------------------------------------------------
$molecule
0  1
O 3.8981965748 -2.9202655537 -0.4968139103
C 4.0084390432 -1.7860270034 0.0170221825
C 4.3205227648 -0.44402131 -0.7407364637
C 3.1340636385 0.6065771298 -0.7337459596
C 1.8514869879 0.0751131024 -0.0076497954
O 1.0101901633 1.1687432846 0.330302646
C -0.0995001902 0.7234498386 1.213801011
C -0.971406189 1.9962968304 1.5317205603
O -2.4028605517 1.723806131 1.2644118463
C -2.6043281889 1.533179872 -0.1405708178
C -4.1048057179 1.1789322068 -0.4252635667
C -4.2528496968 -0.2588486523 -1.0881394775
C -2.9282978702 -1.0196406251 -1.4462595902
O -2.6275775241 -1.4262648469 -2.5914533788
O 4.0016849832 -1.5338533736 1.4294681607
O -2.1320368397 -1.2677785482 -0.2745455153
O -1.7026023421 1.6527581284 -0.9988363414
C -1.053879312 -2.2446475833 -0.5965321376
C -4.9665979875 0.9912448681 0.8908415912
C -6.4950071902 0.9302749175 0.4934001949
C -6.6015115502 -0.5243049434 -0.0970487595
C -5.1041802969 -1.0105897487 0.0294903258
O -4.6501540517 -0.3982465901 1.2970695247
H -4.5211883143 1.9568975879 -1.0910303118
H -4.822134946 -0.1886219826 -2.0318595101
H -4.713327074 1.6990795381 1.7023716292
H -7.1299448227 1.0534093501 1.3849499467
H -6.7622386203 1.7068302341 -0.2411112556
H -7.2631305565 -1.1597595037 0.5133382689
H -6.9589681513 -0.5390433032 -1.1390083584
H -4.9631114318 -2.1084052104 0.0556084542
O 1.5840172187 -1.1260670275 0.2437925751
C 3.6544633111 -2.7767844706 2.1523016182
C 5.4543776926 0.4016632309 -0.014909935
C 5.9809022239 1.5009402949 -1.0216237885
C 4.7993097921 2.5401116265 -0.9860180503
C 3.8057881449 1.8332154481 0.0167986717
O 4.7062404805 1.1844107048 0.9959758294
H 4.6044257339 -0.7102726305 -1.773925285
H 2.8456759186 0.8877214912 -1.7641087002
H 4.3484291808 -3.6053716311 1.9030860963
H 6.239589196 -0.2076165448 0.4724549853
H 6.9200206603 1.9430928869 -0.6528299465
H 6.1560209294 1.0901246951 -2.028760004
H 5.1269838044 3.5108750235 -0.5811558942
H 4.3448059125 2.7054339301 -1.9759566919
H 3.0822294458 2.498858451 0.5257604441
H 2.6197441645 -3.1002451624 1.9160140857
H 3.7311928353 -2.5378454108 3.2289499006
H -1.2903378096 -3.2052786674 -0.0981495092
H -0.0809503589 -1.8547556538 -0.2191292489
H -1.01583514 -2.3915510678 -1.693616257
H -0.9189207023 2.2673844033 2.6039412878
H -0.6013063797 2.8445155367 0.9146651598
H 0.3149130107 0.2748741176 2.1417289791
H -0.7463768064 -0.0339013715 0.7139271334
$end

$rem
JOBTYPE                   OPT
METHOD                    B3LYP
DFT_D                     d3_op
BASIS                     STO-3G
GEOM_OPT_MAX_CYCLES       100
GEOM_OPT_TOL_GRADIENT     300
GEOM_OPT_TOL_DISPLACEMENT 1200
GEOM_OPT_TOL_ENERGY       100
SYMMETRY                  False
THRESH                    12
SCF_CONVERGENCE           8
MAX_SUB_FILE_NUM          128
MEM_STATIC                400
MEM_TOTAL                 4000
$end
--------------------------------------------------------------

   16   -1510.2864453636      5.82E-09 Convergence criterion met
 Total energy in the final basis set = -1510.28644536
   15   -1510.2410226211      5.86E-09 Convergence criterion met
 Total energy in the final basis set = -1510.24102262
   14   -1510.2852054819      5.31E-09 Convergence criterion met
 Total energy in the final basis set = -1510.28520548
   14   -1510.2844342315      6.78E-09 Convergence criterion met
 Total energy in the final basis set = -1510.28443423
   14   -1510.2862000370      7.08E-09 Convergence criterion met
 Total energy in the final basis set = -1510.28620004
   14   -1510.2858108691      2.26E-09 Convergence criterion met
 Total energy in the final basis set = -1510.28581087
   14   -1510.2863072436      5.02E-09 Convergence criterion met
 Total energy in the final basis set = -1510.28630724
   14   -1510.2859610029      2.71E-09 Convergence criterion met
    9   -1510.2924911722      3.42E-09 Convergence criterion met
 Total energy in the final basis set = -1510.29249117
    9   -1510.2924893211      4.21E-09 Convergence criterion met
 Total energy in the final basis set = -1510.29248932
    9   -1510.2924917501      7.62E-09 Convergence criterion met
 Total energy in the final basis set = -1510.29249175
    9   -1510.2924963704      7.60E-09 Convergence criterion met
 Total energy in the final basis set = -1510.29249637
   10   -1510.2925059148      7.33E-09 Convergence criterion met
 Total energy in the final basis set = -1510.29250591
    9   -1510.2925113717      9.60E-09 Convergence criterion met
 Total energy in the final basis set = -1510.29251137

             Standard Nuclear Orientation (Angstroms)
    I     Atom           X                Y                Z
 ----------------------------------------------------------------
    1      O       2.7166272959    -3.0116226303     0.2697639823
    2      C       3.1198384930    -1.8355319900     0.4018428482
    3      C       3.1655498600    -0.7271300640    -0.7053311104
    4      C       2.2463227563     0.5272807106    -0.3953236693
    5      C       1.4010348063     0.3768177839     0.9139599110
    6      O       1.2127972262     1.6538993588     1.5209214443
    7      C       0.1767550931     1.5785604791     2.5774368943
    8      C      -1.0076257343     2.5536142538     2.2068972954
    9      O      -2.2371613565     1.9189610572     1.6715691582
   10      C      -2.0302023992     1.3224262996     0.3884355704
   11      C      -3.4293653960     0.9720802225    -0.2274221365
   12      C      -3.3619176349    -0.0646365279    -1.4244352016
   13      C      -1.9257747887    -0.6419553916    -1.7096309957
   14      O      -1.1940762928    -0.3749990626    -2.6898766044
   15      O       3.6655365854    -1.3010974815     1.6140704484
   16      O      -1.6317003118    -1.6093005101    -0.7042534638
   17      O      -0.9145144869     1.1646805398    -0.1540441355
   18      C      -0.2732744365    -2.1759411106    -0.8881742999
   19      C      -4.4077844592     0.2266118110     0.7779921428
   20      C      -5.8775537928     0.3703056093     0.2183574121
   21      C      -5.8364192974    -0.6332214107    -0.9938288673
   22      C      -4.3572594339    -1.1827655553    -0.8886077192
   23      O      -4.0986630522    -1.2039665499     0.5701875544
   24      H      -3.8762740559     1.9273672409    -0.5622087995
   25      H      -3.7269167466     0.3945347434    -2.3598699882
   26      H      -4.2683593992     0.5112278410     1.8386999215
   27      H      -6.6102604560     0.0552119104     0.9784653262
   28      H      -6.1086386651     1.4027491441    -0.0889615017
   29      H      -6.5612362015    -1.4526912566    -0.8650392355
   30      H      -6.0282766860    -0.1411539910    -1.9607981252
   31      H      -4.1944956015    -2.1873136025    -1.3238938899
   32      O       0.9163607254    -0.6881084307     1.3698687136
   33      C       3.5385075421    -2.2987400372     2.6994857266
   34      C       4.5887808886    -0.0230703996    -0.7952751516
   35      C       4.6598682192     0.7853564649    -2.1521476305
   36      C       3.7559406994     2.0288443632    -1.8151316914
   37      C       3.3190632720     1.6932778873    -0.3358809015
   38      O       4.5146516329     1.0343706701     0.2379823981
   39      H       2.8800805666    -1.2003197492    -1.6607816217
   40      H       1.5199311084     0.6937161471    -1.2136866272
   41      H       4.0348878716    -3.2557063933     2.4391762716
   42      H       5.4466644073    -0.6953645763    -0.6011435826
   43      H       5.6978521434     1.0854234378    -2.3669804044
   44      H       4.2773969061     0.2005713122    -3.0038246691
   45      H       4.3327767807     2.9668907421    -1.8430765474
   46      H       2.8916899665     2.1230303181    -2.4917720901
   47      H       3.0095827162     2.5559015860     0.2845048481
   48      H       2.4725707473    -2.5046290154     2.9290533898
   49      H       4.0293377817    -1.8532579855     3.5841697293
   50      H      -0.3526647419    -3.2794520093    -0.8847377334
   51      H       0.3554787224    -1.8332748552    -0.0359866149
   52      H       0.1502208799    -1.8257243073    -1.8499846628
   53      H      -1.3538928687     3.0749007169     3.1219542786
   54      H      -0.6184230198     3.3107122299     1.4899431587
   55      H       0.6372422490     1.9075567150     3.5323381419
   56      H      -0.1670706870     0.5248435143     2.6758338314
 ----------------------------------------------------------------

    8   -1510.2925105455      9.21E-09 Convergence criterion met
 Total energy in the final basis set = -1510.29251055
 Final energy is   -1510.29251054548
 **  OPTIMIZATION CONVERGED  **

                    Orbital Energies (a.u.)
 --------------------------------------------------------------

 Alpha MOs
 -- Occupied --
-18.945 -18.941 -18.923 -18.912 -18.889 -18.885 -18.884 -18.883
-18.864 -18.852 -10.111 -10.110 -10.090 -10.084 -10.084 -10.076
-10.058 -10.057 -10.056 -10.055 -10.055 -10.040 -10.036 -10.031
-10.030 -10.024 -10.019 -10.017 -10.016 -10.015  -1.026  -1.016
 -1.000  -0.991  -0.967  -0.966  -0.949  -0.943  -0.926  -0.916
 -0.762  -0.759  -0.729  -0.719  -0.714  -0.704  -0.695  -0.652
 -0.639  -0.621  -0.594  -0.580  -0.544  -0.542  -0.535  -0.534
 -0.513  -0.510  -0.486  -0.472  -0.466  -0.459  -0.448  -0.436
 -0.431  -0.429  -0.426  -0.409  -0.406  -0.405  -0.401  -0.400
 -0.389  -0.387  -0.378  -0.363  -0.359  -0.355  -0.346  -0.342
 -0.337  -0.335  -0.331  -0.327  -0.327  -0.320  -0.317  -0.314
 -0.307  -0.304  -0.301  -0.296  -0.293  -0.286  -0.281  -0.272
 -0.271  -0.262  -0.253  -0.243  -0.232  -0.231  -0.227  -0.194
 -0.178  -0.168  -0.166  -0.161  -0.148  -0.142  -0.141  -0.140
 -0.138

          Ground-State Mulliken Net Atomic Charges

     Atom                 Charge (a.u.)
  ----------------------------------------
      1 O                    -0.215119
      2 C                     0.209917
      3 C                    -0.081101
      4 C                    -0.077922
      5 C                     0.233628
      6 O                    -0.168565
      7 C                    -0.055203
      8 C                    -0.049437
      9 O                    -0.171626
     10 C                     0.217162
     11 C                    -0.077802
     12 C                    -0.080585
     13 C                     0.210811
     14 O                    -0.226529
     15 O                    -0.169931
     16 O                    -0.172704
     17 O                    -0.212271
     18 C                    -0.148445
     19 C                     0.024778
     20 C                    -0.143641
     21 C                    -0.144738
     22 C                     0.027315
     23 O                    -0.184937
     24 H                     0.084578
     25 H                     0.081726
     26 H                     0.088445
     27 H                     0.077573
     28 H                     0.072111
     29 H                     0.077512
     30 H                     0.072925
     31 H                     0.086025
     32 O                    -0.216269
     33 C                    -0.128586
     34 C                     0.026314
     35 C                    -0.144119
     36 C                    -0.143852
     37 C                     0.024017
     38 O                    -0.187681
     39 H                     0.085703
     40 H                     0.099846
     41 H                     0.087940
     42 H                     0.082905
     43 H                     0.076937
     44 H                     0.074743
     45 H                     0.076701
     46 H                     0.075856
     47 H                     0.090448
     48 H                     0.090781
     49 H                     0.088206
     50 H                     0.080910
     51 H                     0.105078
     52 H                     0.087741
     53 H                     0.092346
     54 H                     0.092817
     55 H                     0.088616
     56 H                     0.108651
  ----------------------------------------
  Sum of atomic charges =     0.000000

                    Cartesian Multipole Moments
 -----------------------------------------------------------------
    Charge (ESU x 10^10)
                -0.0000
    Dipole Moment (Debye)
         X      -1.3457      Y       2.8656      Z       0.6137
       Tot       3.2248
    Quadrupole Moments (Debye-Ang)
        XX    -149.8603     XY      -6.1034     YY    -159.1808
        XZ      -0.3019     YZ       2.6154     ZZ    -154.4074

 Total job time:  140.55s(wall), 6700.87s(cpu)
        *  Thank you very much for using Q-Chem.  Have a nice day.  *
