 Q-Chem 5.0, Q-Chem, Inc., Pleasanton, CA (2017)
 Q-Chem 5.0.1 for Intel X86 EM64T Linux

User input:
--------------------------------------------------------------
$molecule
0  1
O 4.0777063279 -2.9202359242 -0.3637339829
C 4.0788054213 -1.7481105707 0.0708021238
C 4.2766927943 -0.4368594012 -0.7718255041
C 3.0356323551 0.5488055352 -0.7464133747
C 1.8069020587 -0.0405665289 0.0268681683
O 0.9602804529 1.0147184384 0.4591795377
C -0.087549624 0.5045835021 1.3830311524
C -0.9582010204 1.7450650648 1.8090522194
O -2.3829965887 1.5237914818 1.4735009848
C -2.5587258704 1.5371669399 0.0526054338
C -4.0490119475 1.1982589087 -0.3003945236
C -4.1817312087 -0.1388312055 -1.1503676993
C -2.8533925574 -0.8737512155 -1.5445179681
O -2.5147498033 -1.1577627994 -2.7158344222
O 4.0194590979 -1.4012608163 1.4617114358
O -2.1121661949 -1.2705604788 -0.3782706216
O -1.6434649836 1.7869880932 -0.7618185077
C -1.0464888835 -2.236881785 -0.7650529148
C -4.932739275 0.8374815236 0.9643575911
C -6.4545646726 0.8546390373 0.5392727582
C -6.5645294161 -0.4947915477 -0.2625802078
C -5.0778506045 -1.0207304656 -0.1708947553
O -4.6434484316 -0.5997031201 1.1783178222
H -4.466757884 2.0519890695 -0.8647957332
H -4.7121483367 0.0591032651 -2.0986766627
H -4.6851124854 1.4207873275 1.8710956801
H -7.1015516064 0.8477073895 1.4306718098
H -6.7056035951 1.736141343 -0.0720282453
H -7.25205829 -1.2018028488 0.2284475206
H -6.8919584734 -0.34852903 -1.3042871757
H -4.9546696696 -2.1140716928 -0.2953335697
O 1.5786620095 -1.2584168778 0.2344555071
C 3.769428666 -2.617400501 2.2659632116
C 5.395947618 0.503545042 -0.1448769837
C 5.791660054 1.5965424916 -1.216530466
C 4.5587257381 2.5704692805 -1.1323861291
C 3.6656462497 1.8332060197 -0.0591579641
O 4.658040441 1.2715238273 0.8845982256
H 4.5235864956 -0.7413066507 -1.8038367923
H 2.699663485 0.7835964997 -1.774170688
H 4.5264444372 -3.4036765803 2.069473545
H 6.2464336324 -0.0380709996 0.312189513
H 6.727222608 2.1003146352 -0.9263621363
H 5.921467884 1.1616895295 -2.2203745837
H 4.8550520881 3.5661841945 -0.7655156597
H 4.0395230526 2.6891033907 -2.0968196265
H 2.928531653 2.4657302995 0.4718857394
H 2.7636646654 -3.0355323871 2.0541713312
H 3.8243095134 -2.3028449261 3.3243684759
H -1.3218141196 -3.2365934284 -0.3754336594
H -0.0775961312 -1.9134963841 -0.3204054926
H -0.974788044 -2.2714568605 -1.869701201
H -0.9367545968 1.8930572598 2.9063185699
H -0.5586867467 2.6518016711 1.3038996114
H 0.3854416119 0.0166485649 2.2616511818
H -0.7525904276 -0.2330831196 0.876240369
$end

$rem
JOBTYPE                   OPT
METHOD                    B3LYP
DFT_D                     d3_op
BASIS                     STO-3G
GEOM_OPT_MAX_CYCLES       100
GEOM_OPT_TOL_GRADIENT     300
GEOM_OPT_TOL_DISPLACEMENT 1200
GEOM_OPT_TOL_ENERGY       100
SYMMETRY                  False
THRESH                    12
SCF_CONVERGENCE           8
MAX_SUB_FILE_NUM          128
MEM_STATIC                400
MEM_TOTAL                 4000
$end
--------------------------------------------------------------

   16   -1510.2865218015      5.77E-09 Convergence criterion met
 Total energy in the final basis set = -1510.28652180
   14   -1510.2751933557      7.65E-09 Convergence criterion met
 Total energy in the final basis set = -1510.27519336
   14   -1510.2858737963      5.19E-09 Convergence criterion met
 Total energy in the final basis set = -1510.28587380
   15   -1510.2858379540      1.87E-09 Convergence criterion met
 Total energy in the final basis set = -1510.28583795
   14   -1510.2854461107      5.84E-09 Convergence criterion met
 Total energy in the final basis set = -1510.28544611
   14   -1510.2863550900      7.22E-09 Convergence criterion met
 Total energy in the final basis set = -1510.28635509
   13   -1510.2862122457      3.94E-09 Convergence criterion met
 Total energy in the final basis set = -1510.28621225
   14   -1510.2867283296      3.20E-09 Convergence criterion met
   11   -1510.2924438856      5.19E-09 Convergence criterion met
 Total energy in the final basis set = -1510.29244389
   11   -1510.2924519378      5.23E-09 Convergence criterion met
 Total energy in the final basis set = -1510.29245194
    9   -1510.2924567579      6.28E-09 Convergence criterion met
 Total energy in the final basis set = -1510.29245676
    9   -1510.2924625474      7.05E-09 Convergence criterion met
 Total energy in the final basis set = -1510.29246255
    9   -1510.2924787424      8.47E-09 Convergence criterion met
 Total energy in the final basis set = -1510.29247874
    9   -1510.2924810528      5.12E-09 Convergence criterion met
 Total energy in the final basis set = -1510.29248105

             Standard Nuclear Orientation (Angstroms)
    I     Atom           X                Y                Z
 ----------------------------------------------------------------
    1      O       2.7549028658    -3.0303035812    -0.0252044747
    2      C       3.1314673099    -1.8603428196     0.2042093478
    3      C       3.1258327805    -0.6580421056    -0.8011314844
    4      C       2.1837799067     0.5403043420    -0.3625060796
    5      C       1.3833017796     0.2574739111     0.9526054154
    6      O       1.2169621866     1.4639239288     1.6962124621
    7      C       0.1925987130     1.2857991680     2.7518269280
    8      C      -0.9936986288     2.2952930796     2.4943029321
    9      O      -2.2260937987     1.7243868709     1.8953666674
   10      C      -2.0192758158     1.2720113307     0.5550967894
   11      C      -3.4131527871     0.9945979948    -0.1062515981
   12      C      -3.3278637970     0.1065447250    -1.4166344921
   13      C      -1.8893210378    -0.4480075503    -1.7389311482
   14      O      -1.1314743214    -0.0761229108    -2.6635435939
   15      O       3.6861540271    -1.4204055386     1.4498848854
   16      O      -1.6308669135    -1.5347522733    -0.8526485130
   17      O      -0.9022668860     1.1697391790     0.0019651904
   18      C      -0.2813691941    -2.1055486705    -1.0814978133
   19      C      -4.3998996571     0.1338440933     0.7947780443
   20      C      -5.8660848000     0.3476122115     0.2476429423
   21      C      -5.8119851721    -0.4875495891    -1.0853075728
   22      C      -4.3378241838    -1.0588166545    -1.0326974967
   23      O      -4.0938142206    -1.2617754042     0.4143655463
   24      H      -3.8611168152     1.9811454415    -0.3307050313
   25      H      -3.6716409542     0.6746676572    -2.2986380300
   26      H      -4.2672427558     0.2857735013     1.8834067334
   27      H      -6.6019330349    -0.0672043096     0.9548710042
   28      H      -6.0989397393     1.4110189743     0.0781067125
   29      H      -6.5450793599    -1.3097831261    -1.0778910609
   30      H      -5.9832251811     0.1307411250    -1.9809776166
   31      H      -4.1780176565    -2.0038154000    -1.5865533393
   32      O       0.9126687995    -0.8501072617     1.3109814670
   33      C       3.6092894511    -2.5143363650     2.4433240479
   34      C       4.5282583952     0.0886244496    -0.8647605614
   35      C       4.5447931533     1.0008639575    -2.1551388627
   36      C       3.6152153193     2.1873929752    -1.7009807156
   37      C       3.2272670745     1.7272460083    -0.2407402830
   38      O       4.4540214525     1.0592287795     0.2502426265
   39      H       2.8284860432    -1.0545826781    -1.7874814220
   40      H       1.4258022796     0.7501435154    -1.1417533073
   41      H       4.1279421493    -3.4285431798     2.0896614548
   42      H       5.4067877030    -0.5741143537    -0.7431710031
   43      H       5.5683424004     1.3472240019    -2.3693811101
   44      H       4.1571599252     0.4730638163    -3.0411109738
   45      H       4.1643580738     3.1418806545    -1.6705244613
   46      H       2.7301728931     2.3071848658    -2.3460717666
   47      H       2.9139168817     2.5317061119     0.4517689113
   48      H       2.5546000413    -2.7725889640     2.6716576923
   49      H       4.1042205320    -2.1348397307     3.3559792676
   50      H      -0.3832325953    -3.2017330979    -1.1911067250
   51      H       0.3460282168    -1.8641997745    -0.1939929938
   52      H       0.1600265692    -1.6686525696    -1.9988569329
   53      H      -1.3367949335     2.7131762403     3.4621432049
   54      H      -0.6068473164     3.1259230788     1.8627800122
   55      H       0.6646810990     1.5181378248     3.7292647324
   56      H      -0.1533193921     0.2281935774     2.7505991100
 ----------------------------------------------------------------

    8   -1510.2924810860      7.90E-09 Convergence criterion met
 Total energy in the final basis set = -1510.29248109
 Final energy is   -1510.29248108599
 **  OPTIMIZATION CONVERGED  **

                    Orbital Energies (a.u.)
 --------------------------------------------------------------

 Alpha MOs
 -- Occupied --
-18.946 -18.940 -18.924 -18.912 -18.889 -18.886 -18.883 -18.882
-18.864 -18.852 -10.112 -10.109 -10.090 -10.085 -10.084 -10.076
-10.059 -10.056 -10.056 -10.055 -10.054 -10.040 -10.035 -10.031
-10.031 -10.025 -10.019 -10.018 -10.016 -10.015  -1.026  -1.015
 -1.000  -0.992  -0.967  -0.966  -0.950  -0.942  -0.926  -0.917
 -0.762  -0.759  -0.728  -0.719  -0.714  -0.704  -0.695  -0.652
 -0.640  -0.621  -0.594  -0.580  -0.544  -0.542  -0.535  -0.533
 -0.513  -0.510  -0.486  -0.472  -0.466  -0.459  -0.448  -0.436
 -0.431  -0.429  -0.426  -0.409  -0.406  -0.404  -0.402  -0.400
 -0.390  -0.387  -0.378  -0.363  -0.359  -0.355  -0.346  -0.342
 -0.337  -0.335  -0.331  -0.327  -0.326  -0.320  -0.317  -0.314
 -0.306  -0.304  -0.300  -0.296  -0.293  -0.286  -0.282  -0.272
 -0.271  -0.262  -0.253  -0.243  -0.232  -0.230  -0.228  -0.194
 -0.178  -0.168  -0.166  -0.161  -0.148  -0.142  -0.141  -0.139
 -0.138

          Ground-State Mulliken Net Atomic Charges

     Atom                 Charge (a.u.)
  ----------------------------------------
      1 O                    -0.215086
      2 C                     0.209645
      3 C                    -0.081045
      4 C                    -0.078104
      5 C                     0.233911
      6 O                    -0.168640
      7 C                    -0.055039
      8 C                    -0.049478
      9 O                    -0.171219
     10 C                     0.217305
     11 C                    -0.077958
     12 C                    -0.080450
     13 C                     0.210936
     14 O                    -0.227153
     15 O                    -0.169875
     16 O                    -0.172717
     17 O                    -0.212342
     18 C                    -0.148312
     19 C                     0.024760
     20 C                    -0.143523
     21 C                    -0.144862
     22 C                     0.027513
     23 O                    -0.184630
     24 H                     0.084726
     25 H                     0.081731
     26 H                     0.088281
     27 H                     0.077739
     28 H                     0.072167
     29 H                     0.077556
     30 H                     0.072875
     31 H                     0.085919
     32 O                    -0.217238
     33 C                    -0.128611
     34 C                     0.026240
     35 C                    -0.144070
     36 C                    -0.143865
     37 C                     0.024090
     38 O                    -0.187944
     39 H                     0.085570
     40 H                     0.101131
     41 H                     0.087968
     42 H                     0.082666
     43 H                     0.076801
     44 H                     0.074780
     45 H                     0.076465
     46 H                     0.076203
     47 H                     0.090395
     48 H                     0.090701
     49 H                     0.088301
     50 H                     0.080893
     51 H                     0.105305
     52 H                     0.087378
     53 H                     0.092432
     54 H                     0.092868
     55 H                     0.088669
     56 H                     0.108240
  ----------------------------------------
  Sum of atomic charges =    -0.000000

                    Cartesian Multipole Moments
 -----------------------------------------------------------------
    Charge (ESU x 10^10)
                -0.0000
    Dipole Moment (Debye)
         X      -1.4618      Y       2.7582      Z       0.8748
       Tot       3.2419
    Quadrupole Moments (Debye-Ang)
        XX    -150.2205     XY      -6.3810     YY    -160.0300
        XZ      -0.5434     YZ       2.1757     ZZ    -153.3032

 Total job time:  128.86s(wall), 6145.40s(cpu)
        *  Thank you very much for using Q-Chem.  Have a nice day.  *
