 Q-Chem 5.0, Q-Chem, Inc., Pleasanton, CA (2017)
 Q-Chem 5.0.1 for Intel X86 EM64T Linux

User input:
--------------------------------------------------------------
$molecule
0  1
O -3.94934 -3.66094 2.70899
C -3.26408 -4.56952 2.26188
C -3.36658 -6.02376 2.66595
C -3.75848 -7.03092 1.57238
C -3.8307 -6.49745 0.15877
O -3.69278 -7.52356 -0.73202
C -3.53699 -7.07873 -2.08372
C -3.37845 -8.27539 -3.01593
O -4.39435 -8.24321 -4.03071
C -5.65824 -8.47695 -3.59816
C -6.69036 -8.33221 -4.69105
C -7.72631 -7.22235 -4.46019
C -7.38168 -6.20968 -3.38667
O -8.07617 -5.94018 -2.41733
O -2.26877 -4.25446 1.38716
O -6.26452 -5.46251 -3.59438
O -5.94928 -8.79418 -2.45112
C -5.95012 -4.32495 -2.87804
C -6.17912 -7.92725 -6.09771
C -7.17993 -8.38249 -7.16097
C -8.32222 -7.41905 -6.90998
C -7.69733 -6.52789 -5.83203
O -6.32384 -6.529 -6.14311
H -7.17061 -9.33287 -4.77834
H -8.72458 -7.63959 -4.20008
H -5.17305 -8.32734 -6.34743
H -6.73075 -8.1459 -8.15245
H -7.45207 -9.45951 -7.13359
H -8.50479 -6.83979 -7.84226
H -9.26842 -7.88447 -6.55819
H -8.19307 -5.53223 -5.80741
O -4.03345 -5.33513 -0.16691
C -2.00041 -2.97865 0.93708
C -2.01567 -6.56937 3.14631
C -2.23051 -7.79229 4.03511
C -2.63857 -8.81612 3.0008
C -2.5313 -7.98026 1.72061
O -1.45519 -7.11367 1.98135
H -4.11007 -6.05466 3.49435
H -4.6935 -7.60061 1.76918
H -1.73772 -2.31876 1.7913
H -1.40365 -5.80731 3.67762
H -1.24394 -8.08779 4.45836
H -2.95712 -7.63469 4.86114
H -1.86818 -9.61965 2.98453
H -3.64574 -9.26434 3.14148
H -2.38713 -8.67311 0.86454
H -2.88339 -2.5683 0.40199
H -1.14215 -3.01411 0.23529
H -4.97684 -3.92791 -3.23236
H -5.87578 -4.55641 -1.79596
H -6.73138 -3.55091 -3.03417
H -2.39141 -8.20004 -3.52052
H -3.38448 -9.24657 -2.47083
H -2.62877 -6.43811 -2.166
H -4.40161 -6.46636 -2.3867
$end

$opt
CONSTRAINT
tors           1           2           3           4    +117.910
tors           3           4           5           6    +157.687
tors           4           5           6           7    -170.637
tors           5           6           7           8    +179.566
tors           6           7           8           9    +122.925
tors           7           8           9          10     -69.078
tors           8           9          10          11    +175.879
tors           9          10          11          12    -117.672
tors          11          12          13          14    -123.898
ENDCONSTRAINT
$end

$rem
JOBTYPE                   OPT
METHOD                    B3LYP
DFT_D                     d3_op
BASIS                     STO-3G
GEOM_OPT_MAX_CYCLES       100
GEOM_OPT_TOL_GRADIENT     300
GEOM_OPT_TOL_DISPLACEMENT 1200
GEOM_OPT_TOL_ENERGY       100
SYMMETRY                  False
THRESH                    12
SCF_CONVERGENCE           8
MAX_SUB_FILE_NUM          128
MEM_STATIC                400
MEM_TOTAL                 4000
$end
--------------------------------------------------------------

   15   -1510.1573858532      6.50E-09 Convergence criterion met
 Total energy in the final basis set = -1510.15738585
   14   -1510.2261601256      5.83E-09 Convergence criterion met
 Total energy in the final basis set = -1510.22616013
   14   -1510.2624829050      7.24E-09 Convergence criterion met
 Total energy in the final basis set = -1510.26248290
   14   -1510.2771834701      5.96E-09 Convergence criterion met
 Total energy in the final basis set = -1510.27718347
   14   -1510.2768478303      5.62E-09 Convergence criterion met
 Total energy in the final basis set = -1510.27684783
   14   -1510.2802923035      6.01E-09 Convergence criterion met
 Total energy in the final basis set = -1510.28029230
   14   -1510.2818163600      3.57E-09 Convergence criterion met
 Total energy in the final basis set = -1510.28181636
   12   -1510.2823857415      6.50E-09 Convergence criterion met
   10   -1510.2864737296      5.97E-09 Convergence criterion met
 Total energy in the final basis set = -1510.28647373
   11   -1510.2865074369      5.35E-09 Convergence criterion met
 Total energy in the final basis set = -1510.28650744
   10   -1510.2865133013      9.64E-09 Convergence criterion met
 Total energy in the final basis set = -1510.28651330
    9   -1510.2865167980      7.93E-09 Convergence criterion met
 Total energy in the final basis set = -1510.28651680
    9   -1510.2865192450      6.09E-09 Convergence criterion met
 Total energy in the final basis set = -1510.28651924
    9   -1510.2865203709      3.34E-09 Convergence criterion met
 Total energy in the final basis set = -1510.28652037

             Standard Nuclear Orientation (Angstroms)
    I     Atom           X                Y                Z
 ----------------------------------------------------------------
    1      O       4.0777063279    -2.9202359242    -0.3637339829
    2      C       4.0788054213    -1.7481105707     0.0708021238
    3      C       4.2766927943    -0.4368594012    -0.7718255041
    4      C       3.0356323551     0.5488055352    -0.7464133747
    5      C       1.8069020587    -0.0405665289     0.0268681683
    6      O       0.9602804529     1.0147184384     0.4591795377
    7      C      -0.0875496240     0.5045835021     1.3830311524
    8      C      -0.9582010204     1.7450650648     1.8090522194
    9      O      -2.3829965887     1.5237914818     1.4735009848
   10      C      -2.5587258704     1.5371669399     0.0526054338
   11      C      -4.0490119475     1.1982589087    -0.3003945236
   12      C      -4.1817312087    -0.1388312055    -1.1503676993
   13      C      -2.8533925574    -0.8737512155    -1.5445179681
   14      O      -2.5147498033    -1.1577627994    -2.7158344222
   15      O       4.0194590979    -1.4012608163     1.4617114358
   16      O      -2.1121661949    -1.2705604788    -0.3782706216
   17      O      -1.6434649836     1.7869880932    -0.7618185077
   18      C      -1.0464888835    -2.2368817850    -0.7650529148
   19      C      -4.9327392750     0.8374815236     0.9643575911
   20      C      -6.4545646726     0.8546390373     0.5392727582
   21      C      -6.5645294161    -0.4947915477    -0.2625802078
   22      C      -5.0778506045    -1.0207304656    -0.1708947553
   23      O      -4.6434484316    -0.5997031201     1.1783178222
   24      H      -4.4667578840     2.0519890695    -0.8647957332
   25      H      -4.7121483367     0.0591032651    -2.0986766627
   26      H      -4.6851124854     1.4207873275     1.8710956801
   27      H      -7.1015516064     0.8477073895     1.4306718098
   28      H      -6.7056035951     1.7361413430    -0.0720282453
   29      H      -7.2520582900    -1.2018028488     0.2284475206
   30      H      -6.8919584734    -0.3485290300    -1.3042871757
   31      H      -4.9546696696    -2.1140716928    -0.2953335697
   32      O       1.5786620095    -1.2584168778     0.2344555071
   33      C       3.7694286660    -2.6174005010     2.2659632116
   34      C       5.3959476180     0.5035450420    -0.1448769837
   35      C       5.7916600540     1.5965424916    -1.2165304660
   36      C       4.5587257381     2.5704692805    -1.1323861291
   37      C       3.6656462497     1.8332060197    -0.0591579641
   38      O       4.6580404410     1.2715238273     0.8845982256
   39      H       4.5235864956    -0.7413066507    -1.8038367923
   40      H       2.6996634850     0.7835964997    -1.7741706880
   41      H       4.5264444372    -3.4036765803     2.0694735450
   42      H       6.2464336324    -0.0380709996     0.3121895130
   43      H       6.7272226080     2.1003146352    -0.9263621363
   44      H       5.9214678840     1.1616895295    -2.2203745837
   45      H       4.8550520881     3.5661841945    -0.7655156597
   46      H       4.0395230526     2.6891033907    -2.0968196265
   47      H       2.9285316530     2.4657302995     0.4718857394
   48      H       2.7636646654    -3.0355323871     2.0541713312
   49      H       3.8243095134    -2.3028449261     3.3243684759
   50      H      -1.3218141196    -3.2365934284    -0.3754336594
   51      H      -0.0775961312    -1.9134963841    -0.3204054926
   52      H      -0.9747880440    -2.2714568605    -1.8697012010
   53      H      -0.9367545968     1.8930572598     2.9063185699
   54      H      -0.5586867467     2.6518016711     1.3038996114
   55      H       0.3854416119     0.0166485649     2.2616511818
   56      H      -0.7525904276    -0.2330831196     0.8762403690
 ----------------------------------------------------------------

    9   -1510.2865212883      4.44E-09 Convergence criterion met
 Total energy in the final basis set = -1510.28652129
 Final energy is   -1510.28652128833
 **  OPTIMIZATION CONVERGED  **

                    Orbital Energies (a.u.)
 --------------------------------------------------------------

 Alpha MOs
 -- Occupied --
-18.946 -18.938 -18.928 -18.920 -18.889 -18.887 -18.887 -18.876
-18.874 -18.860 -10.111 -10.102 -10.097 -10.089 -10.078 -10.072
-10.061 -10.059 -10.059 -10.059 -10.054 -10.041 -10.040 -10.038
-10.035 -10.033 -10.021 -10.020 -10.020 -10.019  -1.024  -1.015
 -1.005  -0.998  -0.971  -0.969  -0.946  -0.940  -0.931  -0.923
 -0.764  -0.762  -0.729  -0.722  -0.715  -0.706  -0.695  -0.652
 -0.648  -0.618  -0.598  -0.582  -0.546  -0.545  -0.538  -0.537
 -0.518  -0.512  -0.489  -0.473  -0.468  -0.462  -0.445  -0.441
 -0.434  -0.432  -0.429  -0.414  -0.409  -0.405  -0.403  -0.401
 -0.391  -0.382  -0.370  -0.367  -0.362  -0.357  -0.348  -0.343
 -0.342  -0.340  -0.335  -0.332  -0.329  -0.322  -0.321  -0.314
 -0.308  -0.305  -0.304  -0.300  -0.299  -0.290  -0.282  -0.276
 -0.271  -0.261  -0.256  -0.242  -0.241  -0.234  -0.233  -0.185
 -0.180  -0.171  -0.164  -0.161  -0.159  -0.151  -0.144  -0.143
 -0.140

          Ground-State Mulliken Net Atomic Charges

     Atom                 Charge (a.u.)
  ----------------------------------------
      1 O                    -0.217054
      2 C                     0.212371
      3 C                    -0.080641
      4 C                    -0.077825
      5 C                     0.223097
      6 O                    -0.164383
      7 C                    -0.054173
      8 C                    -0.047362
      9 O                    -0.168476
     10 C                     0.210160
     11 C                    -0.078527
     12 C                    -0.079144
     13 C                     0.208592
     14 O                    -0.210983
     15 O                    -0.171800
     16 O                    -0.176446
     17 O                    -0.213502
     18 C                    -0.154257
     19 C                     0.024491
     20 C                    -0.144758
     21 C                    -0.143665
     22 C                     0.026278
     23 O                    -0.186472
     24 H                     0.085516
     25 H                     0.085931
     26 H                     0.091314
     27 H                     0.077909
     28 H                     0.073065
     29 H                     0.078136
     30 H                     0.074216
     31 H                     0.083332
     32 O                    -0.214252
     33 C                    -0.128631
     34 C                     0.026452
     35 C                    -0.144505
     36 C                    -0.143462
     37 C                     0.024523
     38 O                    -0.187154
     39 H                     0.084472
     40 H                     0.089080
     41 H                     0.087754
     42 H                     0.083913
     43 H                     0.077613
     44 H                     0.074094
     45 H                     0.077783
     46 H                     0.074334
     47 H                     0.089158
     48 H                     0.089598
     49 H                     0.086986
     50 H                     0.078672
     51 H                     0.104602
     52 H                     0.096574
     53 H                     0.092197
     54 H                     0.097507
     55 H                     0.088189
     56 H                     0.109570
  ----------------------------------------
  Sum of atomic charges =     0.000000

                    Cartesian Multipole Moments
 -----------------------------------------------------------------
    Charge (ESU x 10^10)
                -0.0000
    Dipole Moment (Debye)
         X      -1.2559      Y       2.1589      Z       0.6827
       Tot       2.5892
    Quadrupole Moments (Debye-Ang)
        XX    -143.1266     XY       1.2685     YY    -160.5811
        XZ      -1.9085     YZ      -3.3922     ZZ    -161.9120

 Total job time:  81.67s(wall), 3889.48s(cpu)
        *  Thank you very much for using Q-Chem.  Have a nice day.  *
