 Q-Chem 5.0, Q-Chem, Inc., Pleasanton, CA (2017)
 Q-Chem 5.0.1 for Intel X86 EM64T Linux

User input:
--------------------------------------------------------------
$molecule
0  1
O -3.94934 -3.66094 2.70899
C -3.26408 -4.56952 2.26188
C -3.36658 -6.02376 2.66595
C -3.85489 -7.01683 1.59861
C -4.01644 -6.47402 0.19599
O -3.97259 -7.49867 -0.706
C -4.03258 -7.05493 -2.06569
C -3.97895 -8.25019 -3.01152
O -5.1443 -8.26269 -3.85098
C -6.31157 -8.5515 -3.22391
C -7.50838 -8.46882 -4.14123
C -8.59797 -7.48229 -3.69643
C -8.19104 -6.48486 -2.63049
O -8.74873 -6.33139 -1.55346
O -2.30179 -4.26299 1.34832
O -7.17831 -5.63425 -2.94709
O -6.39644 -8.91207 -2.05608
C -6.82957 -4.53291 -2.19137
C -7.26298 -7.96322 -5.58536
C -8.37213 -8.47419 -6.50631
C -9.54381 -7.6362 -6.0362
C -8.84366 -6.73254 -5.01668
O -7.54074 -6.58543 -5.53129
H -7.905 -9.50753 -4.19971
H -9.50209 -8.00854 -3.31687
H -6.27642 -8.25121 -6.00729
H -8.10724 -8.15994 -7.54158
H -8.53734 -9.57296 -6.49117
H -9.91684 -7.03894 -6.89771
H -10.38059 -8.20445 -5.57517
H -9.41864 -5.79253 -4.86348
O -4.20462 -5.30337 -0.10976
C -2.04986 -2.99117 0.87796
C -2.00091 -6.60138 3.05609
C -2.1855 -7.82668 3.94873
C -2.6769 -8.8347 2.93499
C -2.63889 -7.99002 1.65687
O -1.52987 -7.1475 1.85283
H -4.05976 -6.04275 3.53724
H -4.7845 -7.56997 1.85855
H -1.75616 -2.3243 1.71653
H -1.34012 -5.85611 3.5515
H -1.18203 -8.146 4.31037
H -2.85808 -7.659 4.81745
H -1.92151 -9.64916 2.86069
H -3.67893 -9.27001 3.13869
H -2.56612 -8.6774 0.7874
H -2.95163 -2.58473 0.37202
H -1.21777 -3.03289 0.14567
H -5.96155 -4.02723 -2.66184
H -6.55491 -4.84298 -1.16186
H -7.67916 -3.81867 -2.14653
H -3.09448 -8.13087 -3.67351
H -3.84759 -9.21864 -2.47767
H -3.15781 -6.39735 -2.277
H -4.94358 -6.45793 -2.24699
$end

$opt
CONSTRAINT
tors           1           2           3           4    +113.682
tors           3           4           5           6    +158.147
tors           4           5           6           7    -176.209
tors           5           6           7           8    -180.000
tors           6           7           8           9    +122.101
tors           7           8           9          10     -69.545
tors           8           9          10          11    +176.587
tors           9          10          11          12    -122.083
tors          11          12          13          14    -123.686
ENDCONSTRAINT
$end

$rem
JOBTYPE                   OPT
METHOD                    B3LYP
DFT_D                     d3_op
BASIS                     STO-3G
GEOM_OPT_MAX_CYCLES       100
GEOM_OPT_TOL_GRADIENT     300
GEOM_OPT_TOL_DISPLACEMENT 1200
GEOM_OPT_TOL_ENERGY       100
SYMMETRY                  False
THRESH                    12
SCF_CONVERGENCE           8
MAX_SUB_FILE_NUM          128
MEM_STATIC                400
MEM_TOTAL                 4000
$end
--------------------------------------------------------------

   15   -1510.1589297910      6.32E-09 Convergence criterion met
 Total energy in the final basis set = -1510.15892979
   14   -1510.2275775864      5.44E-09 Convergence criterion met
 Total energy in the final basis set = -1510.22757759
   14   -1510.2637109502      6.73E-09 Convergence criterion met
 Total energy in the final basis set = -1510.26371095
   14   -1510.2781391090      5.57E-09 Convergence criterion met
 Total energy in the final basis set = -1510.27813911
   14   -1510.2779835896      5.86E-09 Convergence criterion met
 Total energy in the final basis set = -1510.27798359
   14   -1510.2818914577      6.45E-09 Convergence criterion met
 Total energy in the final basis set = -1510.28189146
   13   -1510.2829744609      7.81E-09 Convergence criterion met
 Total energy in the final basis set = -1510.28297446
   12   -1510.2835004105      7.42E-09 Convergence criterion met
   11   -1510.2866424373      5.31E-09 Convergence criterion met
 Total energy in the final basis set = -1510.28664244
   10   -1510.2866473225      8.10E-09 Convergence criterion met
 Total energy in the final basis set = -1510.28664732
    9   -1510.2866529276      5.03E-09 Convergence criterion met
 Total energy in the final basis set = -1510.28665293
    9   -1510.2866570525      2.86E-09 Convergence criterion met
 Total energy in the final basis set = -1510.28665705
    9   -1510.2866595594      5.66E-09 Convergence criterion met
 Total energy in the final basis set = -1510.28665956
    9   -1510.2866609210      3.60E-09 Convergence criterion met
 Total energy in the final basis set = -1510.28666092

             Standard Nuclear Orientation (Angstroms)
    I     Atom           X                Y                Z
 ----------------------------------------------------------------
    1      O       4.0129199223    -2.9067158356    -0.4311288848
    2      C       4.0746199769    -1.7433221134     0.0219536788
    3      C       4.2020300200    -0.4177454395    -0.8124999603
    4      C       2.9375109883     0.5344172418    -0.7244958417
    5      C       1.7899956414    -0.0611285085     0.1607788554
    6      O       0.9427165966     0.9857771022     0.6119765939
    7      C      -0.1014468212     0.4568068455     1.5287832840
    8      C      -0.9799079609     1.6875638007     1.9677663921
    9      O      -2.3990678484     1.4640352651     1.6081522237
   10      C      -2.5528018645     1.5139403803     0.1856708918
   11      C      -4.0376556157     1.1915457592    -0.2029576919
   12      C      -4.1440370331    -0.0570622376    -1.1806675911
   13      C      -2.7959689711    -0.7384391546    -1.6037175948
   14      O      -2.4133965011    -0.9046284436    -2.7837440236
   15      O       4.1532130472    -1.4213678517     1.4175462482
   16      O      -2.0904066576    -1.2348577641    -0.4533660488
   17      O      -1.6248710358     1.7839569892    -0.6077783503
   18      C      -0.9872894751    -2.1343139715    -0.8891911070
   19      C      -4.9273173886     0.7009970591     1.0124031764
   20      C      -6.4452779097     0.7498886852     0.5760198325
   21      C      -6.5354803487    -0.5109578385    -0.3615524228
   22      C      -5.0470236595    -1.0356848506    -0.3051694907
   23      O      -4.6295689724    -0.7487522925     1.0844865398
   24      H      -4.4620043468     2.0910709972    -0.6863052983
   25      H      -4.6564224822     0.2245769420    -2.1173362457
   26      H      -4.6908704998     1.1931841664     1.9744893940
   27      H      -7.1007248635     0.6477161192     1.4554947619
   28      H      -6.6980916997     1.6871621465     0.0550494079
   29      H      -7.2253472725    -1.2681952148     0.0439954464
   30      H      -6.8495443994    -0.2597171966    -1.3873097670
   31      H      -4.9158397997    -2.1107563999    -0.5354154536
   32      O       1.5956326850    -1.2765642783     0.4105238435
   33      C       3.9711927651    -2.6493343755     2.2215948586
   34      C       5.3279712319     0.5477979986    -0.2396233181
   35      C       5.6678964767     1.6276465093    -1.3424491925
   36      C       4.4098038604     2.5678943748    -1.2474878656
   37      C       3.5794018403     1.8497608881    -0.1119426697
   38      O       4.6193945915     1.3265498315     0.8023588295
   39      H       4.4053182923    -0.7069552102    -1.8583464811
   40      H       2.5142501146     0.7294393942    -1.7280178381
   41      H       4.7127290959    -3.4299269462     1.9549820991
   42      H       6.2021672910     0.0261140087     0.1951209255
   43      H       6.5944344568     2.1640839243    -1.0830259563
   44      H       5.7882514474     1.1773121108    -2.3406219007
   45      H       4.6883014238     3.5867517890    -0.9343786649
   46      H       3.8504626537     2.6295064312    -2.1945638895
   47      H       2.8582102743     2.4881848609     0.4336607221
   48      H       2.9530530725    -3.0689808288     2.0855218956
   49      H       4.1100032627    -2.3490884515     3.2764625688
   50      H      -0.0661368908    -1.8839538160    -0.3179779710
   51      H      -0.8182973853    -2.0046525624    -1.9762245711
   52      H      -1.2793897016    -3.1829401232    -0.6823581406
   53      H      -0.9731646373     1.8143743771     3.0678543510
   54      H      -0.5776958236     2.6046218695     1.4841606356
   55      H       0.3723200511    -0.0392779763     2.4025890802
   56      H      -0.7560052932    -0.2808303736     1.0103532231
 ----------------------------------------------------------------

    9   -1510.2866608551      2.09E-09 Convergence criterion met
 Total energy in the final basis set = -1510.28666086
 Final energy is   -1510.28666085506
 **  OPTIMIZATION CONVERGED  **

                    Orbital Energies (a.u.)
 --------------------------------------------------------------

 Alpha MOs
 -- Occupied --
-18.946 -18.939 -18.927 -18.920 -18.888 -18.886 -18.885 -18.877
-18.873 -18.860 -10.110 -10.103 -10.096 -10.089 -10.079 -10.073
-10.061 -10.059 -10.058 -10.058 -10.053 -10.041 -10.040 -10.038
-10.038 -10.032 -10.021 -10.020 -10.019 -10.018  -1.024  -1.016
 -1.004  -0.998  -0.970  -0.968  -0.945  -0.940  -0.930  -0.923
 -0.764  -0.762  -0.729  -0.722  -0.715  -0.706  -0.695  -0.651
 -0.649  -0.618  -0.597  -0.582  -0.546  -0.544  -0.538  -0.536
 -0.518  -0.512  -0.489  -0.472  -0.468  -0.462  -0.445  -0.442
 -0.433  -0.431  -0.429  -0.413  -0.409  -0.405  -0.402  -0.400
 -0.391  -0.383  -0.370  -0.368  -0.362  -0.357  -0.349  -0.345
 -0.341  -0.340  -0.334  -0.331  -0.329  -0.322  -0.321  -0.313
 -0.308  -0.305  -0.304  -0.300  -0.298  -0.290  -0.282  -0.275
 -0.271  -0.261  -0.256  -0.242  -0.241  -0.234  -0.233  -0.186
 -0.180  -0.170  -0.163  -0.161  -0.159  -0.150  -0.144  -0.143
 -0.139

          Ground-State Mulliken Net Atomic Charges

     Atom                 Charge (a.u.)
  ----------------------------------------
      1 O                    -0.217270
      2 C                     0.212361
      3 C                    -0.081083
      4 C                    -0.077537
      5 C                     0.221878
      6 O                    -0.163982
      7 C                    -0.052665
      8 C                    -0.047399
      9 O                    -0.168803
     10 C                     0.210687
     11 C                    -0.078484
     12 C                    -0.079146
     13 C                     0.208938
     14 O                    -0.211472
     15 O                    -0.171841
     16 O                    -0.176099
     17 O                    -0.213601
     18 C                    -0.151076
     19 C                     0.024019
     20 C                    -0.144567
     21 C                    -0.143705
     22 C                     0.026257
     23 O                    -0.186610
     24 H                     0.085394
     25 H                     0.085775
     26 H                     0.091701
     27 H                     0.077930
     28 H                     0.073012
     29 H                     0.078148
     30 H                     0.074136
     31 H                     0.083334
     32 O                    -0.215493
     33 C                    -0.128384
     34 C                     0.026462
     35 C                    -0.144271
     36 C                    -0.143785
     37 C                     0.024400
     38 O                    -0.187722
     39 H                     0.084077
     40 H                     0.089615
     41 H                     0.087135
     42 H                     0.084257
     43 H                     0.077465
     44 H                     0.073975
     45 H                     0.077686
     46 H                     0.074400
     47 H                     0.089218
     48 H                     0.090209
     49 H                     0.086999
     50 H                     0.101597
     51 H                     0.096739
     52 H                     0.079655
     53 H                     0.092353
     54 H                     0.098171
     55 H                     0.089007
     56 H                     0.108005
  ----------------------------------------
  Sum of atomic charges =    -0.000000

                    Cartesian Multipole Moments
 -----------------------------------------------------------------
    Charge (ESU x 10^10)
                 0.0000
    Dipole Moment (Debye)
         X      -1.3666      Y       2.0906      Z       0.6798
       Tot       2.5885
    Quadrupole Moments (Debye-Ang)
        XX    -143.5435     XY       0.3841     YY    -160.7834
        XZ      -1.8874     YZ      -2.5997     ZZ    -161.0914

 Total job time:  95.30s(wall), 4537.09s(cpu)
        *  Thank you very much for using Q-Chem.  Have a nice day.  *
