 Q-Chem 5.0, Q-Chem, Inc., Pleasanton, CA (2017)
 Q-Chem 5.0.1 for Intel X86 EM64T Linux

User input:
--------------------------------------------------------------
$molecule
0  1
O 4.0129199223 -2.9067158356 -0.4311288848
C 4.0746199769 -1.7433221134 0.0219536788
C 4.20203002 -0.4177454395 -0.8124999603
C 2.9375109883 0.5344172418 -0.7244958417
C 1.7899956414 -0.0611285085 0.1607788554
O 0.9427165966 0.9857771022 0.6119765939
C -0.1014468212 0.4568068455 1.528783284
C -0.9799079609 1.6875638007 1.9677663921
O -2.3990678484 1.4640352651 1.6081522237
C -2.5528018645 1.5139403803 0.1856708918
C -4.0376556157 1.1915457592 -0.2029576919
C -4.1440370331 -0.0570622376 -1.1806675911
C -2.7959689711 -0.7384391546 -1.6037175948
O -2.4133965011 -0.9046284436 -2.7837440236
O 4.1532130472 -1.4213678517 1.4175462482
O -2.0904066576 -1.2348577641 -0.4533660488
O -1.6248710358 1.7839569892 -0.6077783503
C -0.9872894751 -2.1343139715 -0.889191107
C -4.9273173886 0.7009970591 1.0124031764
C -6.4452779097 0.7498886852 0.5760198325
C -6.5354803487 -0.5109578385 -0.3615524228
C -5.0470236595 -1.0356848506 -0.3051694907
O -4.6295689724 -0.7487522925 1.0844865398
H -4.4620043468 2.0910709972 -0.6863052983
H -4.6564224822 0.224576942 -2.1173362457
H -4.6908704998 1.1931841664 1.974489394
H -7.1007248635 0.6477161192 1.4554947619
H -6.6980916997 1.6871621465 0.0550494079
H -7.2253472725 -1.2681952148 0.0439954464
H -6.8495443994 -0.2597171966 -1.387309767
H -4.9158397997 -2.1107563999 -0.5354154536
O 1.595632685 -1.2765642783 0.4105238435
C 3.9711927651 -2.6493343755 2.2215948586
C 5.3279712319 0.5477979986 -0.2396233181
C 5.6678964767 1.6276465093 -1.3424491925
C 4.4098038604 2.5678943748 -1.2474878656
C 3.5794018403 1.8497608881 -0.1119426697
O 4.6193945915 1.3265498315 0.8023588295
H 4.4053182923 -0.7069552102 -1.8583464811
H 2.5142501146 0.7294393942 -1.7280178381
H 4.7127290959 -3.4299269462 1.9549820991
H 6.202167291 0.0261140087 0.1951209255
H 6.5944344568 2.1640839243 -1.0830259563
H 5.7882514474 1.1773121108 -2.3406219007
H 4.6883014238 3.586751789 -0.9343786649
H 3.8504626537 2.6295064312 -2.1945638895
H 2.8582102743 2.4881848609 0.4336607221
H 2.9530530725 -3.0689808288 2.0855218956
H 4.1100032627 -2.3490884515 3.2764625688
H -0.0661368908 -1.883953816 -0.317977971
H -0.8182973853 -2.0046525624 -1.9762245711
H -1.2793897016 -3.1829401232 -0.6823581406
H -0.9731646373 1.8143743771 3.067854351
H -0.5776958236 2.6046218695 1.4841606356
H 0.3723200511 -0.0392779763 2.4025890802
H -0.7560052932 -0.2808303736 1.0103532231
$end

$rem
JOBTYPE                   OPT
METHOD                    B3LYP
DFT_D                     d3_op
BASIS                     STO-3G
GEOM_OPT_MAX_CYCLES       100
GEOM_OPT_TOL_GRADIENT     300
GEOM_OPT_TOL_DISPLACEMENT 1200
GEOM_OPT_TOL_ENERGY       100
SYMMETRY                  False
THRESH                    12
SCF_CONVERGENCE           8
MAX_SUB_FILE_NUM          128
MEM_STATIC                400
MEM_TOTAL                 4000
$end
--------------------------------------------------------------

   16   -1510.2866571863      5.69E-09 Convergence criterion met
 Total energy in the final basis set = -1510.28665719
   15   -1510.2451393036      4.28E-09 Convergence criterion met
 Total energy in the final basis set = -1510.24513930
   14   -1510.2857167536      5.69E-09 Convergence criterion met
 Total energy in the final basis set = -1510.28571675
   15   -1510.2851387488      3.57E-09 Convergence criterion met
 Total energy in the final basis set = -1510.28513875
   14   -1510.2861494650      2.71E-09 Convergence criterion met
 Total energy in the final basis set = -1510.28614946
   14   -1510.2850790301      8.28E-09 Convergence criterion met
 Total energy in the final basis set = -1510.28507903
   13   -1510.2869326363      3.05E-09 Convergence criterion met
 Total energy in the final basis set = -1510.28693264
   13   -1510.2869975886      6.16E-09 Convergence criterion met
   11   -1510.2923506639      7.88E-09 Convergence criterion met
 Total energy in the final basis set = -1510.29235066
   12   -1510.2923948534      4.08E-09 Convergence criterion met
 Total energy in the final basis set = -1510.29239485
   11   -1510.2924275360      7.94E-09 Convergence criterion met
 Total energy in the final basis set = -1510.29242754
   11   -1510.2924391196      5.32E-09 Convergence criterion met
 Total energy in the final basis set = -1510.29243912
   10   -1510.2924432064      6.28E-09 Convergence criterion met
 Total energy in the final basis set = -1510.29244321
   10   -1510.2924494969      6.15E-09 Convergence criterion met
 Total energy in the final basis set = -1510.29244950

             Standard Nuclear Orientation (Angstroms)
    I     Atom           X                Y                Z
 ----------------------------------------------------------------
    1      O       2.8225509696    -3.0005227323    -0.1446269506
    2      C       3.1698381831    -1.8271215609     0.1118255586
    3      C       3.1136514188    -0.5975902616    -0.8584303518
    4      C       2.1610719109     0.5676238117    -0.3585657191
    5      C       1.3864866144     0.2246686637     0.9576887679
    6      O       1.2111733996     1.4012174179     1.7462089779
    7      C       0.1927442705     1.1734947206     2.7980654462
    8      C      -1.0045782220     2.1797347090     2.5812211081
    9      O      -2.2328862302     1.6210203879     1.9622913472
   10      C      -2.0235716501     1.2210544627     0.6059563455
   11      C      -3.4143815947     0.9575671698    -0.0671910878
   12      C      -3.3204952043     0.1112830434    -1.4048321357
   13      C      -1.8775865601    -0.4243383453    -1.7401506242
   14      O      -1.1184174637    -0.0183419773    -2.6492866804
   15      O       3.7301013630    -1.4059016685     1.3614598682
   16      O      -1.6165350223    -1.5386692634    -0.8897354194
   17      O      -0.9059916536     1.1480365161     0.0494425665
   18      C      -0.2645288589    -2.0966349665    -1.1349810675
   19      C      -4.3991375935     0.0637270990     0.8032977505
   20      C      -5.8649915071     0.2854768574     0.2582425679
   21      C      -5.8017164615    -0.5072931091    -1.0999860832
   22      C      -4.3244018516    -1.0711633432    -1.0602235110
   23      O      -4.0835464385    -1.3175083941     0.3806075657
   24      H      -3.8670547497     1.9481918683    -0.2623132606
   25      H      -3.6649078821     0.7051712168    -2.2694573771
   26      H      -4.2706877952     0.1822843255     1.8965653231
   27      H      -6.6002653125    -0.1557546003     0.9498473970
   28      H      -6.1041120362     1.3521298333     0.1210295270
   29      H      -6.5302627385    -1.3332687378    -1.1210682645
   30      H      -5.9733010172     0.1380778148    -1.9762452410
   31      H      -4.1574130295    -1.9976204602    -1.6425609212
   32      O       0.9369972091    -0.9020053998     1.2820767957
   33      C       3.7000833215    -2.5288446225     2.3245794864
   34      C       4.4985215411     0.1793462075    -0.9367398260
   35      C       4.4579464601     1.1366308648    -2.1937108456
   36      C       3.5256222932     2.2909953462    -1.6680967421
   37      C       3.1864274153     1.7685122590    -0.2167469943
   38      O       4.4386593787     1.1071091129     0.2149341695
   39      H       2.7982182359    -0.9720548064    -1.8478100509
   40      H       1.3855487130     0.7923155130    -1.1161690436
   41      H       4.2365380541    -3.4184870843     1.9364891121
   42      H       5.3932573327    -0.4688928664    -0.8656152144
   43      H       5.4681554511     1.5071636343    -2.4296553356
   44      H       4.0486822601     0.6330957506    -3.0841376599
   45      H       4.0625280945     3.2515008136    -1.6155431370
   46      H       2.6205807231     2.4226614100    -2.2824856482
   47      H       2.8773012855     2.5402859660     0.5138595983
   48      H       2.6567959972    -2.8218496992     2.5632626437
   49      H       4.2006014791    -2.1616140536     3.2391996958
   50      H       0.3650833743    -1.8716964005    -0.2444423329
   51      H       0.1716238655    -1.6371402548    -2.0437644143
   52      H      -0.3617261533    -3.1905332761    -1.2685315736
   53      H      -1.3499326357     2.5564820607     3.5650684137
   54      H      -0.6267533015     3.0378068212     1.9818233020
   55      H       0.6656181320     1.3749976018     3.7819926031
   56      H      -0.1418800580     0.1129728209     2.7596252250
 ----------------------------------------------------------------

    9   -1510.2924512802      5.11E-09 Convergence criterion met
 Total energy in the final basis set = -1510.29245128
 Final energy is   -1510.29245128018
 **  OPTIMIZATION CONVERGED  **

                    Orbital Energies (a.u.)
 --------------------------------------------------------------

 Alpha MOs
 -- Occupied --
-18.946 -18.940 -18.924 -18.912 -18.889 -18.886 -18.883 -18.882
-18.864 -18.852 -10.112 -10.109 -10.090 -10.085 -10.084 -10.076
-10.059 -10.056 -10.056 -10.055 -10.054 -10.040 -10.034 -10.031
-10.030 -10.025 -10.019 -10.018 -10.016 -10.014  -1.026  -1.015
 -1.000  -0.992  -0.967  -0.965  -0.950  -0.942  -0.926  -0.917
 -0.762  -0.759  -0.728  -0.719  -0.714  -0.704  -0.695  -0.652
 -0.640  -0.621  -0.594  -0.580  -0.544  -0.542  -0.535  -0.533
 -0.513  -0.510  -0.486  -0.472  -0.466  -0.459  -0.448  -0.436
 -0.431  -0.428  -0.426  -0.408  -0.406  -0.404  -0.402  -0.400
 -0.390  -0.387  -0.378  -0.363  -0.359  -0.355  -0.346  -0.342
 -0.337  -0.335  -0.331  -0.327  -0.326  -0.320  -0.317  -0.314
 -0.306  -0.304  -0.300  -0.296  -0.294  -0.286  -0.282  -0.272
 -0.271  -0.262  -0.253  -0.243  -0.232  -0.230  -0.228  -0.194
 -0.178  -0.168  -0.166  -0.161  -0.148  -0.142  -0.141  -0.139
 -0.138

          Ground-State Mulliken Net Atomic Charges

     Atom                 Charge (a.u.)
  ----------------------------------------
      1 O                    -0.215056
      2 C                     0.209588
      3 C                    -0.080943
      4 C                    -0.078265
      5 C                     0.234000
      6 O                    -0.168774
      7 C                    -0.055000
      8 C                    -0.049467
      9 O                    -0.171070
     10 C                     0.217358
     11 C                    -0.077976
     12 C                    -0.080413
     13 C                     0.210865
     14 O                    -0.227262
     15 O                    -0.169756
     16 O                    -0.172760
     17 O                    -0.212522
     18 C                    -0.148482
     19 C                     0.024726
     20 C                    -0.143538
     21 C                    -0.144875
     22 C                     0.027522
     23 O                    -0.184679
     24 H                     0.084751
     25 H                     0.081751
     26 H                     0.088348
     27 H                     0.077775
     28 H                     0.072169
     29 H                     0.077584
     30 H                     0.072876
     31 H                     0.085942
     32 O                    -0.217445
     33 C                    -0.128610
     34 C                     0.026204
     35 C                    -0.144099
     36 C                    -0.143777
     37 C                     0.024172
     38 O                    -0.187873
     39 H                     0.085664
     40 H                     0.101606
     41 H                     0.088045
     42 H                     0.082528
     43 H                     0.076752
     44 H                     0.074868
     45 H                     0.076385
     46 H                     0.076310
     47 H                     0.090252
     48 H                     0.090546
     49 H                     0.088334
     50 H                     0.105425
     51 H                     0.087313
     52 H                     0.080882
     53 H                     0.092444
     54 H                     0.092875
     55 H                     0.088627
     56 H                     0.108159
  ----------------------------------------
  Sum of atomic charges =    -0.000000

                    Cartesian Multipole Moments
 -----------------------------------------------------------------
    Charge (ESU x 10^10)
                -0.0000
    Dipole Moment (Debye)
         X      -1.5390      Y       2.7252      Z       0.9587
       Tot       3.2733
    Quadrupole Moments (Debye-Ang)
        XX    -150.3910     XY      -6.2710     YY    -160.4462
        XZ      -0.5474     YZ       1.9561     ZZ    -152.9588

 Total job time:  122.18s(wall), 5824.08s(cpu)
        *  Thank you very much for using Q-Chem.  Have a nice day.  *
