 Q-Chem 5.0, Q-Chem, Inc., Pleasanton, CA (2017)
 Q-Chem 5.0.1 for Intel X86 EM64T Linux

User input:
--------------------------------------------------------------
$molecule
0  1
O -3.94934 -3.66094 2.70899
C -3.26408 -4.56952 2.26188
C -3.36658 -6.02376 2.66595
C -3.84049 -7.01907 1.59421
C -3.98863 -6.47778 0.18953
O -3.9321 -7.50296 -0.71115
C -4.04424 -7.06583 -2.06968
C -3.94846 -8.25865 -3.01527
O -5.17158 -8.39576 -3.75557
C -6.24847 -8.79403 -3.03387
C -7.52836 -8.78929 -3.83545
C -8.61655 -7.84063 -3.31186
C -8.15887 -6.79786 -2.31193
O -8.63488 -6.62594 -1.19908
O -2.29868 -4.26231 1.35187
O -7.24435 -5.89426 -2.75361
O -6.20165 -9.14731 -1.86185
C -6.93762 -4.72114 -2.09264
C -7.44089 -8.30681 -5.30605
C -8.60282 -8.89146 -6.11072
C -9.76664 -8.10012 -5.54924
C -9.02087 -7.1382 -4.61915
O -7.77983 -6.94279 -5.2556
H -7.8755 -9.84712 -3.84247
H -9.45483 -8.39685 -2.83622
H -6.48351 -8.55884 -5.81047
H -8.44931 -8.58788 -7.17138
H -8.71163 -9.99623 -6.06141
H -10.24923 -7.54465 -6.38387
H -10.52584 -8.69663 -4.99839
H -9.62497 -6.22279 -4.43262
O -4.19306 -5.30992 -0.11665
C -2.04404 -2.98991 0.88458
C -2.0027 -6.59653 3.06967
C -2.19181 -7.8216 3.96166
C -2.67052 -8.83202 2.94429
C -2.62228 -7.98853 1.66572
O -1.518 -7.14228 1.8717
H -4.06752 -6.04451 3.53096
H -4.77108 -7.57499 1.84454
H -1.75217 -2.3249 1.72528
H -1.34917 -5.84869 3.5708
H -1.19065 -8.13731 4.33276
H -2.87285 -7.65551 4.82407
H -1.91241 -9.64468 2.87849
H -3.67348 -9.26955 3.13846
H -2.53872 -8.67662 0.79778
H -2.94384 -2.58161 0.37667
H -1.20971 -3.03114 0.15481
H -6.14842 -4.18066 -2.6544
H -6.571 -4.93888 -1.0685
H -7.83861 -4.07439 -2.03017
H -3.16378 -8.02976 -3.76844
H -3.63793 -9.20138 -2.5112
H -3.17598 -6.3992 -2.28187
H -4.95568 -6.47843 -2.25685
$end

$opt
CONSTRAINT
tors           1           2           3           4    +114.320
tors           3           4           5           6    +158.147
tors           4           5           6           7    -179.067
tors           5           6           7           8    +179.013
tors           6           7           8           9    +117.629
tors           7           8           9          10     -69.545
tors           8           9          10          11    +174.372
tors           9          10          11          12    -118.499
tors          11          12          13          14    -124.978
ENDCONSTRAINT
$end

$rem
JOBTYPE                   OPT
METHOD                    B3LYP
DFT_D                     d3_op
BASIS                     STO-3G
GEOM_OPT_MAX_CYCLES       100
GEOM_OPT_TOL_GRADIENT     300
GEOM_OPT_TOL_DISPLACEMENT 1200
GEOM_OPT_TOL_ENERGY       100
SYMMETRY                  False
THRESH                    12
SCF_CONVERGENCE           8
MAX_SUB_FILE_NUM          128
MEM_STATIC                400
MEM_TOTAL                 4000
$end
--------------------------------------------------------------

   15   -1510.1583457727      6.33E-09 Convergence criterion met
 Total energy in the final basis set = -1510.15834577
   14   -1510.2269555695      5.65E-09 Convergence criterion met
 Total energy in the final basis set = -1510.22695557
   14   -1510.2631295413      6.90E-09 Convergence criterion met
 Total energy in the final basis set = -1510.26312954
   14   -1510.2778572949      5.80E-09 Convergence criterion met
 Total energy in the final basis set = -1510.27785729
   14   -1510.2786777560      5.13E-09 Convergence criterion met
 Total energy in the final basis set = -1510.27867776
   14   -1510.2815502437      6.87E-09 Convergence criterion met
 Total energy in the final basis set = -1510.28155024
   14   -1510.2830186700      3.36E-09 Convergence criterion met
 Total energy in the final basis set = -1510.28301867
   12   -1510.2834853671      6.86E-09 Convergence criterion met
    9   -1510.2865805242      7.84E-09 Convergence criterion met
 Total energy in the final basis set = -1510.28658052
    9   -1510.2865816918      8.05E-09 Convergence criterion met
 Total energy in the final basis set = -1510.28658169
    9   -1510.2865839941      3.44E-09 Convergence criterion met
 Total energy in the final basis set = -1510.28658399
    9   -1510.2865849336      1.65E-09 Convergence criterion met
 Total energy in the final basis set = -1510.28658493
    8   -1510.2865851513      8.32E-09 Convergence criterion met
 Total energy in the final basis set = -1510.28658515
    8   -1510.2865856653      3.29E-09 Convergence criterion met
 Total energy in the final basis set = -1510.28658567

             Standard Nuclear Orientation (Angstroms)
    I     Atom           X                Y                Z
 ----------------------------------------------------------------
    1      O       4.0856285482    -2.8578568865    -0.5276166857
    2      C       4.1088692686    -1.6977473407    -0.0628026038
    3      C       4.1231668430    -0.3566666954    -0.8825803767
    4      C       2.8221875836     0.5292068245    -0.7013244813
    5      C       1.7496235935    -0.1358655834     0.2276015335
    6      O       0.8876897955     0.8677734384     0.7421862936
    7      C      -0.1334483592     0.2785469373     1.6487245590
    8      C      -1.0072193881     1.4770738835     2.1735715612
    9      O      -2.4136130152     1.3148931217     1.7361274348
   10      C      -2.5046838515     1.5072637674     0.3207264147
   11      C      -3.9608686955     1.1970232827    -0.1699473185
   12      C      -4.0080374573    -0.0071544034    -1.2065846541
   13      C      -2.6509550535    -0.7167516208    -1.5488836437
   14      O      -2.1918191233    -0.8645804775    -2.7039724329
   15      O       4.2320464797    -1.3869802345     1.3319646374
   16      O      -2.0482252104    -1.2810291219    -0.3705541197
   17      O      -1.5456331644     1.8584261275    -0.4007424504
   18      C      -0.9847276151    -2.2479099261    -0.7620272000
   19      C      -4.9318757659     0.6611792143     0.9632177812
   20      C      -6.4176577130     0.7685356516     0.4356903132
   21      C      -6.4657294388    -0.4282499497    -0.5852326752
   22      C      -4.9994493725    -0.9996495380    -0.4520406930
   23      O      -4.6721324160    -0.7973862655     0.9757207653
   24      H      -4.3571350330     2.1147542213    -0.6424732666
   25      H      -4.4306914620     0.3260534099    -2.1708549829
   26      H      -4.7466232237     1.0965714096     1.9631215491
   27      H      -7.1300765503     0.6227679575     1.2631564217
   28      H      -6.6220393964     1.7418144269    -0.0385274827
   29      H      -7.2036927924    -1.1883651409    -0.2827554165
   30      H      -6.6935212856    -0.1037378065    -1.6131421585
   31      H      -4.8810195730    -2.0649453851    -0.7297332470
   32      O       1.6134249605    -1.3637856163     0.4541233871
   33      C       4.1518204969    -2.6302527989     2.1289681685
   34      C       5.2329348442     0.6530502663    -0.3583805751
   35      C       5.4499867634     1.7730759289    -1.4521768028
   36      C       4.1562300866     2.6482174076    -1.2537704083
   37      C       3.4338177504     1.8605454502    -0.0912153996
   38      O       4.5530550594     1.3702284061     0.7444321855
   39      H       4.2773753211    -0.6208892492    -1.9433176193
   40      H       2.3356455309     0.7274329696    -1.6751433919
   41      H       4.9282755641    -3.3634800920     1.8290329774
   42      H       6.1574077245     0.1671870711     0.0086487068
   43      H       6.3645383122     2.3488542033    -1.2381921589
   44      H       5.5269531873     1.3519303012    -2.4673263351
   45      H       4.4052458403     3.6710440581    -0.9291047752
   46      H       3.5371357879     2.7067493152    -2.1631488334
   47      H       2.7156588602     2.4461781386     0.5143466373
   48      H       3.1559778402    -3.1085990797     2.0251041758
   49      H       4.3106949127    -2.3305263258     3.1811830085
   50      H      -0.0425691123    -2.0019506468    -0.2228903585
   51      H      -0.8267225637    -2.1886380866    -1.8566739274
   52      H      -1.3197729890    -3.2659459571    -0.4824974840
   53      H      -1.0457439742     1.4919449715     3.2802653663
   54      H      -0.5730874022     2.4308151411     1.8015518791
   55      H       0.3597508556    -0.2667062605     2.4812505638
   56      H      -0.8000808848    -0.4243629553     1.0958983078
 ----------------------------------------------------------------

    8   -1510.2865857405      3.60E-09 Convergence criterion met
 Total energy in the final basis set = -1510.28658574
 Final energy is   -1510.28658574048
 **  OPTIMIZATION CONVERGED  **

                    Orbital Energies (a.u.)
 --------------------------------------------------------------

 Alpha MOs
 -- Occupied --
-18.945 -18.939 -18.929 -18.920 -18.889 -18.885 -18.884 -18.877
-18.876 -18.860 -10.109 -10.103 -10.098 -10.088 -10.078 -10.071
-10.062 -10.060 -10.057 -10.057 -10.053 -10.041 -10.039 -10.039
-10.038 -10.032 -10.022 -10.021 -10.018 -10.017  -1.023  -1.015
 -1.006  -0.997  -0.971  -0.968  -0.944  -0.940  -0.932  -0.923
 -0.765  -0.761  -0.729  -0.721  -0.715  -0.706  -0.695  -0.651
 -0.649  -0.618  -0.597  -0.582  -0.546  -0.543  -0.538  -0.535
 -0.517  -0.512  -0.489  -0.473  -0.468  -0.462  -0.444  -0.440
 -0.434  -0.430  -0.429  -0.414  -0.410  -0.405  -0.402  -0.401
 -0.390  -0.382  -0.370  -0.367  -0.362  -0.358  -0.349  -0.344
 -0.342  -0.341  -0.334  -0.332  -0.328  -0.322  -0.321  -0.312
 -0.309  -0.305  -0.304  -0.300  -0.298  -0.290  -0.282  -0.276
 -0.271  -0.260  -0.256  -0.243  -0.241  -0.235  -0.232  -0.185
 -0.179  -0.172  -0.163  -0.161  -0.158  -0.151  -0.144  -0.142
 -0.139

          Ground-State Mulliken Net Atomic Charges

     Atom                 Charge (a.u.)
  ----------------------------------------
      1 O                    -0.217011
      2 C                     0.212251
      3 C                    -0.081013
      4 C                    -0.077468
      5 C                     0.221629
      6 O                    -0.163577
      7 C                    -0.054855
      8 C                    -0.047591
      9 O                    -0.168622
     10 C                     0.209333
     11 C                    -0.078733
     12 C                    -0.078639
     13 C                     0.208680
     14 O                    -0.210695
     15 O                    -0.171485
     16 O                    -0.175813
     17 O                    -0.212990
     18 C                    -0.152461
     19 C                     0.024256
     20 C                    -0.144336
     21 C                    -0.143920
     22 C                     0.026446
     23 O                    -0.186177
     24 H                     0.085275
     25 H                     0.086305
     26 H                     0.091589
     27 H                     0.078019
     28 H                     0.073066
     29 H                     0.078258
     30 H                     0.074230
     31 H                     0.083222
     32 O                    -0.216899
     33 C                    -0.128280
     34 C                     0.026547
     35 C                    -0.144310
     36 C                    -0.143691
     37 C                     0.024490
     38 O                    -0.187757
     39 H                     0.084090
     40 H                     0.089908
     41 H                     0.086903
     42 H                     0.083859
     43 H                     0.077338
     44 H                     0.073864
     45 H                     0.077547
     46 H                     0.074557
     47 H                     0.089669
     48 H                     0.090202
     49 H                     0.087064
     50 H                     0.102067
     51 H                     0.097062
     52 H                     0.080286
     53 H                     0.092201
     54 H                     0.098249
     55 H                     0.088866
     56 H                     0.108995
  ----------------------------------------
  Sum of atomic charges =    -0.000000

                    Cartesian Multipole Moments
 -----------------------------------------------------------------
    Charge (ESU x 10^10)
                 0.0000
    Dipole Moment (Debye)
         X      -1.6345      Y       1.9550      Z       0.5975
       Tot       2.6174
    Quadrupole Moments (Debye-Ang)
        XX    -144.9396     XY       0.2090     YY    -161.1904
        XZ      -0.5119     YZ      -2.8102     ZZ    -159.7681

 Total job time:  129.10s(wall), 6151.75s(cpu)
        *  Thank you very much for using Q-Chem.  Have a nice day.  *
