 Q-Chem 5.0, Q-Chem, Inc., Pleasanton, CA (2017)
 Q-Chem 5.0.1 for Intel X86 EM64T Linux

User input:
--------------------------------------------------------------
$molecule
0  1
O 4.0856285482 -2.8578568865 -0.5276166857
C 4.1088692686 -1.6977473407 -0.0628026038
C 4.123166843 -0.3566666954 -0.8825803767
C 2.8221875836 0.5292068245 -0.7013244813
C 1.7496235935 -0.1358655834 0.2276015335
O 0.8876897955 0.8677734384 0.7421862936
C -0.1334483592 0.2785469373 1.648724559
C -1.0072193881 1.4770738835 2.1735715612
O -2.4136130152 1.3148931217 1.7361274348
C -2.5046838515 1.5072637674 0.3207264147
C -3.9608686955 1.1970232827 -0.1699473185
C -4.0080374573 -0.0071544034 -1.2065846541
C -2.6509550535 -0.7167516208 -1.5488836437
O -2.1918191233 -0.8645804775 -2.7039724329
O 4.2320464797 -1.3869802345 1.3319646374
O -2.0482252104 -1.2810291219 -0.3705541197
O -1.5456331644 1.8584261275 -0.4007424504
C -0.9847276151 -2.2479099261 -0.7620272
C -4.9318757659 0.6611792143 0.9632177812
C -6.417657713 0.7685356516 0.4356903132
C -6.4657294388 -0.4282499497 -0.5852326752
C -4.9994493725 -0.999649538 -0.452040693
O -4.672132416 -0.7973862655 0.9757207653
H -4.357135033 2.1147542213 -0.6424732666
H -4.430691462 0.3260534099 -2.1708549829
H -4.7466232237 1.0965714096 1.9631215491
H -7.1300765503 0.6227679575 1.2631564217
H -6.6220393964 1.7418144269 -0.0385274827
H -7.2036927924 -1.1883651409 -0.2827554165
H -6.6935212856 -0.1037378065 -1.6131421585
H -4.881019573 -2.0649453851 -0.729733247
O 1.6134249605 -1.3637856163 0.4541233871
C 4.1518204969 -2.6302527989 2.1289681685
C 5.2329348442 0.6530502663 -0.3583805751
C 5.4499867634 1.7730759289 -1.4521768028
C 4.1562300866 2.6482174076 -1.2537704083
C 3.4338177504 1.8605454502 -0.0912153996
O 4.5530550594 1.3702284061 0.7444321855
H 4.2773753211 -0.6208892492 -1.9433176193
H 2.3356455309 0.7274329696 -1.6751433919
H 4.9282755641 -3.363480092 1.8290329774
H 6.1574077245 0.1671870711 0.0086487068
H 6.3645383122 2.3488542033 -1.2381921589
H 5.5269531873 1.3519303012 -2.4673263351
H 4.4052458403 3.6710440581 -0.9291047752
H 3.5371357879 2.7067493152 -2.1631488334
H 2.7156588602 2.4461781386 0.5143466373
H 3.1559778402 -3.1085990797 2.0251041758
H 4.3106949127 -2.3305263258 3.1811830085
H -0.0425691123 -2.0019506468 -0.2228903585
H -0.8267225637 -2.1886380866 -1.8566739274
H -1.319772989 -3.2659459571 -0.482497484
H -1.0457439742 1.4919449715 3.2802653663
H -0.5730874022 2.4308151411 1.8015518791
H 0.3597508556 -0.2667062605 2.4812505638
H -0.8000808848 -0.4243629553 1.0958983078
$end

$rem
JOBTYPE                   OPT
METHOD                    B3LYP
DFT_D                     d3_op
BASIS                     STO-3G
GEOM_OPT_MAX_CYCLES       100
GEOM_OPT_TOL_GRADIENT     300
GEOM_OPT_TOL_DISPLACEMENT 1200
GEOM_OPT_TOL_ENERGY       100
SYMMETRY                  False
THRESH                    12
SCF_CONVERGENCE           8
MAX_SUB_FILE_NUM          128
MEM_STATIC                400
MEM_TOTAL                 4000
$end
--------------------------------------------------------------

   16   -1510.2866484443      5.80E-09 Convergence criterion met
 Total energy in the final basis set = -1510.28664844
   15   -1510.2817153968      2.94E-09 Convergence criterion met
 Total energy in the final basis set = -1510.28171540
   15   -1510.2799843199      4.27E-09 Convergence criterion met
 Total energy in the final basis set = -1510.27998432
   15   -1510.2848271120      4.12E-09 Convergence criterion met
 Total energy in the final basis set = -1510.28482711
   14   -1510.2855801136      7.46E-09 Convergence criterion met
 Total energy in the final basis set = -1510.28558011
   14   -1510.2858164441      2.14E-09 Convergence criterion met
 Total energy in the final basis set = -1510.28581644
   15   -1510.2859148370      1.96E-09 Convergence criterion met
 Total energy in the final basis set = -1510.28591484
   13   -1510.2869412742      5.96E-09 Convergence criterion met
   13   -1510.2922362484      2.17E-09 Convergence criterion met
 Total energy in the final basis set = -1510.29223625
   13   -1510.2922995576      2.32E-09 Convergence criterion met
 Total energy in the final basis set = -1510.29229956
   12   -1510.2923224723      5.65E-09 Convergence criterion met
 Total energy in the final basis set = -1510.29232247
   12   -1510.2923553934      4.42E-09 Convergence criterion met
 Total energy in the final basis set = -1510.29235539
   11   -1510.2923640313      3.27E-09 Convergence criterion met
 Total energy in the final basis set = -1510.29236403
    9   -1510.2923509180      8.27E-09 Convergence criterion met
 Total energy in the final basis set = -1510.29235092

             Standard Nuclear Orientation (Angstroms)
    I     Atom           X                Y                Z
 ----------------------------------------------------------------
    1      O       2.8832703821    -2.9508191708    -0.2942617854
    2      C       3.1988464753    -1.7799149675     0.0101903659
    3      C       3.0921005371    -0.5102115740    -0.9015656534
    4      C       2.1291881923     0.6089846693    -0.3239179355
    5      C       1.3764615990     0.1806149316     0.9804418251
    6      O       1.1813583979     1.3094707028     1.8321110151
    7      C       0.1655558504     1.0055412835     2.8675296094
    8      C      -1.0489700902     2.0013537703     2.7054462638
    9      O      -2.2643873962     1.4627914087     2.0440357113
   10      C      -2.0414970483     1.1528720692     0.6666173163
   11      C      -3.4231397025     0.9155827527    -0.0344462023
   12      C      -3.3080382449     0.1444839737    -1.4155807659
   13      C      -1.8575982398    -0.3645521561    -1.7603538357
   14      O      -1.0904497493     0.0904753769    -2.6391526112
   15      O       3.7613950486    -1.3978191336     1.2713363694
   16      O      -1.5989756494    -1.5178639809    -0.9629197703
   17      O      -0.9197360187     1.1299509922     0.1142658436
   18      C      -0.2419708531    -2.0570831698    -1.2223078096
   19      C      -4.4118059806    -0.0313135164     0.7732995389
   20      C      -5.8725429741     0.2112867316     0.2233063491
   21      C      -5.7886690696    -0.5058012731    -1.1753639076
   22      C      -4.3079631412    -1.0609023143    -1.1492418098
   23      O      -4.0821811033    -1.3851648258     0.2787626190
   24      H      -3.8813866663     1.9119660528    -0.1811281511
   25      H      -3.6441744497     0.7840712664    -2.2504427139
   26      H      -4.2970752479     0.0270947278     1.8729071968
   27      H      -6.6131387568    -0.2713504739     0.8807230438
   28      H      -6.1171221801     1.2822919400     0.1412331924
   29      H      -6.5111815685    -1.3338542972    -1.2499886790
   30      H      -5.9549884507     0.1855655855    -2.0168521499
   31      H      -4.1278152446    -1.9526818987    -1.7797173930
   32      O       0.9506422571    -0.9704884693     1.2463993481
   33      C       3.7765235991    -2.5630122914     2.1833377486
   34      C       4.4579730901     0.2999357690    -0.9769176593
   35      C       4.3595387705     1.3224835944    -2.1787929364
   36      C       3.4254866859     2.4296816438    -1.5638146713
   37      C       3.1351262580     1.8201770215    -0.1367343702
   38      O       4.4116638345     1.1628264970     0.2248982130
   39      H       2.7602945381    -0.8459273302    -1.8994389937
   40      H       1.3379155641     0.8608067060    -1.0564882128
   41      H       4.3328174636    -3.4185613113     1.7491911921
   42      H       5.3680118834    -0.3304667744    -0.9673800985
   43      H       5.3549541880     1.7235550554    -2.4272851534
   44      H       3.9295050302     0.8583299183    -3.0807814242
   45      H       3.9495214888     3.3943513578    -1.4714310517
   46      H       2.5018505751     2.5808158862    -2.1452078285
   47      H       2.8300800882     2.5433449067     0.6435220510
   48      H       2.7452057247    -2.8964953499     2.4210750375
   49      H       4.2784391248    -2.2224588449     3.1074576358
   50      H       0.3832348638    -1.8619771222    -0.3212945220
   51      H       0.1947523027    -1.5610328622    -2.1113286636
   52      H      -0.3321730773    -3.1456577351    -1.3971680006
   53      H      -1.4066708095     2.3087075315     3.7088697473
   54      H      -0.6827661995     2.9024261168     2.1648670787
   55      H       0.6330872233     1.1595082093     3.8625699469
   56      H      -0.1493606286    -0.0570674835     2.7683552340
 ----------------------------------------------------------------

    9   -1510.2923512666      4.01E-09 Convergence criterion met
 Total energy in the final basis set = -1510.29235127
 Final energy is   -1510.29235126664
 **  OPTIMIZATION CONVERGED  **

                    Orbital Energies (a.u.)
 --------------------------------------------------------------

 Alpha MOs
 -- Occupied --
-18.946 -18.940 -18.924 -18.912 -18.889 -18.886 -18.883 -18.882
-18.864 -18.853 -10.112 -10.109 -10.090 -10.085 -10.084 -10.076
-10.059 -10.056 -10.056 -10.055 -10.054 -10.040 -10.034 -10.031
-10.030 -10.025 -10.019 -10.018 -10.015 -10.014  -1.026  -1.015
 -1.000  -0.992  -0.967  -0.965  -0.950  -0.942  -0.926  -0.917
 -0.762  -0.759  -0.728  -0.719  -0.714  -0.704  -0.695  -0.652
 -0.640  -0.621  -0.594  -0.580  -0.544  -0.542  -0.535  -0.533
 -0.513  -0.510  -0.486  -0.472  -0.466  -0.459  -0.448  -0.436
 -0.432  -0.428  -0.426  -0.408  -0.406  -0.404  -0.402  -0.400
 -0.390  -0.387  -0.378  -0.364  -0.359  -0.355  -0.346  -0.342
 -0.337  -0.335  -0.332  -0.327  -0.326  -0.320  -0.316  -0.314
 -0.306  -0.304  -0.300  -0.296  -0.294  -0.286  -0.282  -0.271
 -0.271  -0.262  -0.253  -0.243  -0.232  -0.230  -0.228  -0.194
 -0.178  -0.168  -0.166  -0.161  -0.148  -0.142  -0.141  -0.139
 -0.138

          Ground-State Mulliken Net Atomic Charges

     Atom                 Charge (a.u.)
  ----------------------------------------
      1 O                    -0.215047
      2 C                     0.209581
      3 C                    -0.080888
      4 C                    -0.078337
      5 C                     0.233899
      6 O                    -0.168726
      7 C                    -0.055135
      8 C                    -0.049462
      9 O                    -0.170901
     10 C                     0.217418
     11 C                    -0.078006
     12 C                    -0.080317
     13 C                     0.210747
     14 O                    -0.227331
     15 O                    -0.169687
     16 O                    -0.172798
     17 O                    -0.212800
     18 C                    -0.148718
     19 C                     0.024691
     20 C                    -0.143548
     21 C                    -0.144895
     22 C                     0.027464
     23 O                    -0.184615
     24 H                     0.084724
     25 H                     0.081776
     26 H                     0.088449
     27 H                     0.077782
     28 H                     0.072152
     29 H                     0.077650
     30 H                     0.072894
     31 H                     0.085900
     32 O                    -0.217657
     33 C                    -0.128612
     34 C                     0.026104
     35 C                    -0.144109
     36 C                    -0.143690
     37 C                     0.024242
     38 O                    -0.187746
     39 H                     0.085819
     40 H                     0.102232
     41 H                     0.088101
     42 H                     0.082476
     43 H                     0.076673
     44 H                     0.074950
     45 H                     0.076314
     46 H                     0.076496
     47 H                     0.090072
     48 H                     0.090377
     49 H                     0.088343
     50 H                     0.105513
     51 H                     0.087168
     52 H                     0.080930
     53 H                     0.092473
     54 H                     0.092845
     55 H                     0.088572
     56 H                     0.108200
  ----------------------------------------
  Sum of atomic charges =    -0.000000

                    Cartesian Multipole Moments
 -----------------------------------------------------------------
    Charge (ESU x 10^10)
                -0.0000
    Dipole Moment (Debye)
         X      -1.6332      Y       2.6648      Z       1.0881
       Tot       3.3095
    Quadrupole Moments (Debye-Ang)
        XX    -150.5604     XY      -6.2166     YY    -160.9583
        XZ      -0.6370     YZ       1.5311     ZZ    -152.5031

 Total job time:  103.22s(wall), 4918.22s(cpu)
        *  Thank you very much for using Q-Chem.  Have a nice day.  *
