 Q-Chem 5.0, Q-Chem, Inc., Pleasanton, CA (2017)
 Q-Chem 5.0.1 for Intel X86 EM64T Linux

User input:
--------------------------------------------------------------
$molecule
0  1
O -3.94934 -3.66094 2.70899
C -3.26408 -4.56952 2.26188
C -3.36658 -6.02376 2.66595
C -3.77475 -7.02869 1.57628
C -3.86198 -6.49378 0.16407
O -3.74825 -7.52087 -0.72899
C -3.73503 -7.08319 -2.0919
C -3.60617 -8.28087 -3.02736
O -4.76198 -8.36581 -3.87575
C -5.91938 -8.69955 -3.25271
C -7.10531 -8.72254 -4.18743
C -8.21345 -7.71363 -3.85215
C -7.83343 -6.61271 -2.88247
O -8.4115 -6.35971 -1.83539
O -2.28027 -4.25763 1.37337
O -6.8277 -5.78228 -3.26837
O -6.0079 -8.98638 -2.06503
C -6.51362 -4.59893 -2.63023
C -6.84448 -8.34548 -5.66859
C -7.92992 -8.9573 -6.55566
C -9.12259 -8.10177 -6.17967
C -8.45224 -7.09499 -5.23971
O -7.14425 -6.97368 -5.74718
H -7.48054 -9.77049 -4.16372
H -9.11519 -8.21429 -3.43443
H -5.84645 -8.65466 -6.04665
H -7.65306 -8.73175 -7.61075
H -8.07762 -10.05313 -6.44545
H -9.495 -7.59498 -7.09756
H -9.95477 -8.64044 -5.67669
H -9.04425 -6.1548 -5.18243
O -4.09981 -5.33536 -0.15395
C -2.01732 -2.98323 0.91625
C -2.01226 -6.57461 3.13015
C -2.22115 -7.79828 4.01945
C -2.64362 -8.81942 2.98814
C -2.54894 -7.98177 1.7082
O -1.46712 -7.11892 1.95788
H -4.10113 -6.05285 3.50234
H -4.70925 -7.59549 1.78385
H -1.74341 -2.32108 1.76519
H -1.39173 -5.81533 3.65552
H -1.2311 -8.09761 4.43171
H -2.9384 -7.63942 4.85339
H -1.87529 -9.62464 2.96141
H -3.65006 -9.26568 3.13983
H -2.41729 -8.67311 0.84886
H -2.90696 -2.57398 0.3915
H -1.16818 -3.02097 0.20358
H -5.64455 -4.13101 -3.13642
H -6.25516 -4.78868 -1.56789
H -7.37585 -3.90035 -2.68018
H -2.74116 -8.09635 -3.70027
H -3.39708 -9.23525 -2.49366
H -2.83911 -6.43579 -2.23661
H -4.62187 -6.4772 -2.34627
$end

$opt
CONSTRAINT
tors           1           2           3           4    +117.203
tors           3           4           5           6    +158.147
tors           4           5           6           7    -176.209
tors           5           6           7           8    -180.000
tors           6           7           8           9    +118.375
tors           7           8           9          10     -68.785
tors           8           9          10          11    +177.874
tors           9          10          11          12    -117.857
tors          11          12          13          14    -124.127
ENDCONSTRAINT
$end

$rem
JOBTYPE                   OPT
METHOD                    B3LYP
DFT_D                     d3_op
BASIS                     STO-3G
GEOM_OPT_MAX_CYCLES       100
GEOM_OPT_TOL_GRADIENT     300
GEOM_OPT_TOL_DISPLACEMENT 1200
GEOM_OPT_TOL_ENERGY       100
SYMMETRY                  False
THRESH                    12
SCF_CONVERGENCE           8
MAX_SUB_FILE_NUM          128
MEM_STATIC                400
MEM_TOTAL                 4000
$end
--------------------------------------------------------------

   15   -1510.1579913090      6.40E-09 Convergence criterion met
 Total energy in the final basis set = -1510.15799131
   14   -1510.2266447157      5.59E-09 Convergence criterion met
 Total energy in the final basis set = -1510.22664472
   14   -1510.2628131345      7.31E-09 Convergence criterion met
 Total energy in the final basis set = -1510.26281313
   14   -1510.2775584325      6.08E-09 Convergence criterion met
 Total energy in the final basis set = -1510.27755843
   14   -1510.2793919130      4.54E-09 Convergence criterion met
 Total energy in the final basis set = -1510.27939191
    2   -1510.2793919129      1.98E-09 Convergence criterion met
 Total energy in the final basis set = -1510.27939191
   14   -1510.2811106248      5.47E-09 Convergence criterion met
 Total energy in the final basis set = -1510.28111062
   14   -1510.2826290400      3.01E-09 Convergence criterion met
   11   -1510.2864763634      5.04E-09 Convergence criterion met
 Total energy in the final basis set = -1510.28647636
   11   -1510.2864812869      1.86E-09 Convergence criterion met
 Total energy in the final basis set = -1510.28648129
    9   -1510.2864856680      9.99E-09 Convergence criterion met
 Total energy in the final basis set = -1510.28648567
    9   -1510.2864883102      8.52E-09 Convergence criterion met
 Total energy in the final basis set = -1510.28648831
    9   -1510.2864927968      5.72E-09 Convergence criterion met
 Total energy in the final basis set = -1510.28649280
    9   -1510.2864949656      8.28E-09 Convergence criterion met
 Total energy in the final basis set = -1510.28649497

             Standard Nuclear Orientation (Angstroms)
    I     Atom           X                Y                Z
 ----------------------------------------------------------------
    1      O       4.1209637494    -2.8828096496    -0.4788883028
    2      C       4.1146248697    -1.7199352004    -0.0204553884
    3      C       4.1810358616    -0.3842560935    -0.8457579347
    4      C       2.9003143260     0.5363752178    -0.6958516574
    5      C       1.7753216310    -0.1157937740     0.1781900858
    6      O       0.9212864788     0.9005453652     0.6824611938
    7      C      -0.1048373495     0.3251552501     1.5910369165
    8      C      -0.9915961180     1.5259576282     2.0901104372
    9      O      -2.3967502650     1.3371899351     1.6596381766
   10      C      -2.4918443888     1.4775943792     0.2381109199
   11      C      -3.9679950878     1.2248746586    -0.2264890946
   12      C      -4.0854452527    -0.0268980968    -1.1997670927
   13      C      -2.7540502458    -0.7682202073    -1.5724919570
   14      O      -2.3463200239    -0.9642096630    -2.7397884019
   15      O       4.1592234469    -1.4012850163     1.3773781891
   16      O      -2.1007114871    -1.2819116290    -0.3994417562
   17      O      -1.5270322219     1.7692798385    -0.5018231284
   18      C      -1.0287290644    -2.2366934512    -0.7967867281
   19      C      -4.9407757506     0.7862447550     0.9444975113
   20      C      -6.4304438186     0.8937377712     0.4261342715
   21      C      -6.5282576024    -0.3794973726    -0.4936876704
   22      C      -5.0661748968    -0.9604258979    -0.3588543691
   23      O      -4.7076777147    -0.6732979611     1.0468394678
   24      H      -4.3234958617     2.1392806844    -0.7358040737
   25      H      -4.5471277385     0.2700116596    -2.1580199965
   26      H      -4.7362484537     1.2798094261     1.9131588736
   27      H      -7.1362912913     0.8385622731     1.2700392411
   28      H      -6.6107936075     1.8309390893    -0.1243860891
   29      H      -7.2647267992    -1.1020414666    -0.1070577303
   30      H      -6.7857217331    -0.1357440965    -1.5368149359
   31      H      -4.9655887728    -2.0423179669    -0.5719352012
   32      O       1.5990840805    -1.3438377613     0.3743509700
   33      C       4.0349481310    -2.6405242993     2.1750192477
   34      C       5.3027745246     0.5967362276    -0.2922654826
   35      C       5.5641040712     1.7230483763    -1.3700664642
   36      C       4.2933523518     2.6322230244    -1.1772095134
   37      C       3.5264351960     1.8419103904    -0.0453834271
   38      O       4.6166480186     1.3150076715     0.8059567115
   39      H       4.3554689159    -0.6556060472    -1.9014630009
   40      H       2.4576031849     0.7638205804    -1.6840669613
   41      H       4.8180267902    -3.3805258905     1.9115808428
   42      H       6.2098861361     0.0876247246     0.0865117934
   43      H       6.4921104483     2.2700248712    -1.1394801544
   44      H       5.6407616079     1.3107467785    -2.3888476645
   45      H       4.5668119168     3.6395534375    -0.8246779734
   46      H       3.6938429577     2.7300035091    -2.0963710564
   47      H       2.8077166908     2.4331960870     0.5540217156
   48      H       3.0409705810    -3.1119002043     2.0294333380
   49      H       4.1496507396    -2.3378094432     3.2320957108
   50      H      -0.0771773909    -1.9591203052    -0.2899707657
   51      H      -0.9044066666    -2.2022618730    -1.8968970148
   52      H      -1.3334037712    -3.2544321391    -0.4832479199
   53      H      -1.0282861738     1.5653898524     3.1962274695
   54      H      -0.5687761774     2.4759238972     1.6958431974
   55      H       0.3868836592    -0.1985624813     2.4385080114
   56      H      -0.7615332384    -0.3969897559     1.0541893443
 ----------------------------------------------------------------

    9   -1510.2864958665      3.73E-09 Convergence criterion met
 Total energy in the final basis set = -1510.28649587
 Final energy is   -1510.28649586655
 **  OPTIMIZATION CONVERGED  **

                    Orbital Energies (a.u.)
 --------------------------------------------------------------

 Alpha MOs
 -- Occupied --
-18.946 -18.939 -18.928 -18.920 -18.889 -18.886 -18.884 -18.876
-18.874 -18.860 -10.109 -10.102 -10.097 -10.089 -10.078 -10.072
-10.061 -10.059 -10.058 -10.058 -10.053 -10.041 -10.039 -10.038
-10.037 -10.032 -10.021 -10.020 -10.019 -10.018  -1.023  -1.015
 -1.005  -0.998  -0.971  -0.968  -0.944  -0.940  -0.931  -0.923
 -0.764  -0.761  -0.729  -0.721  -0.715  -0.706  -0.695  -0.651
 -0.649  -0.618  -0.597  -0.582  -0.546  -0.544  -0.538  -0.536
 -0.517  -0.512  -0.489  -0.473  -0.468  -0.462  -0.444  -0.441
 -0.434  -0.431  -0.429  -0.413  -0.410  -0.405  -0.403  -0.401
 -0.390  -0.382  -0.370  -0.367  -0.362  -0.357  -0.348  -0.344
 -0.342  -0.341  -0.334  -0.332  -0.328  -0.322  -0.321  -0.312
 -0.308  -0.305  -0.304  -0.299  -0.299  -0.289  -0.282  -0.276
 -0.271  -0.260  -0.256  -0.242  -0.242  -0.234  -0.233  -0.186
 -0.179  -0.171  -0.164  -0.160  -0.158  -0.151  -0.144  -0.142
 -0.140

          Ground-State Mulliken Net Atomic Charges

     Atom                 Charge (a.u.)
  ----------------------------------------
      1 O                    -0.216825
      2 C                     0.212280
      3 C                    -0.080761
      4 C                    -0.077659
      5 C                     0.222056
      6 O                    -0.163474
      7 C                    -0.053152
      8 C                    -0.047241
      9 O                    -0.168165
     10 C                     0.210034
     11 C                    -0.078535
     12 C                    -0.079074
     13 C                     0.208551
     14 O                    -0.211453
     15 O                    -0.171479
     16 O                    -0.176016
     17 O                    -0.213699
     18 C                    -0.152402
     19 C                     0.024417
     20 C                    -0.144636
     21 C                    -0.143604
     22 C                     0.026280
     23 O                    -0.186322
     24 H                     0.085506
     25 H                     0.085919
     26 H                     0.091168
     27 H                     0.077902
     28 H                     0.072984
     29 H                     0.078186
     30 H                     0.074231
     31 H                     0.083338
     32 O                    -0.216426
     33 C                    -0.128401
     34 C                     0.026527
     35 C                    -0.144413
     36 C                    -0.143520
     37 C                     0.024552
     38 O                    -0.187447
     39 H                     0.084317
     40 H                     0.089686
     41 H                     0.087299
     42 H                     0.083667
     43 H                     0.077456
     44 H                     0.073981
     45 H                     0.077554
     46 H                     0.074464
     47 H                     0.089418
     48 H                     0.089900
     49 H                     0.087055
     50 H                     0.101941
     51 H                     0.097335
     52 H                     0.079917
     53 H                     0.092478
     54 H                     0.097546
     55 H                     0.088335
     56 H                     0.108423
  ----------------------------------------
  Sum of atomic charges =     0.000000

                    Cartesian Multipole Moments
 -----------------------------------------------------------------
    Charge (ESU x 10^10)
                 0.0000
    Dipole Moment (Debye)
         X      -1.4800      Y       2.1175      Z       0.6688
       Tot       2.6686
    Quadrupole Moments (Debye-Ang)
        XX    -144.9122     XY       0.3858     YY    -160.6462
        XZ      -0.8636     YZ      -3.1317     ZZ    -160.4832

 Total job time:  128.04s(wall), 6097.40s(cpu)
        *  Thank you very much for using Q-Chem.  Have a nice day.  *
