 Q-Chem 5.0, Q-Chem, Inc., Pleasanton, CA (2017)
 Q-Chem 5.0.1 for Intel X86 EM64T Linux

User input:
--------------------------------------------------------------
$molecule
0  1
O 4.1209637494 -2.8828096496 -0.4788883028
C 4.1146248697 -1.7199352004 -0.0204553884
C 4.1810358616 -0.3842560935 -0.8457579347
C 2.900314326 0.5363752178 -0.6958516574
C 1.775321631 -0.115793774 0.1781900858
O 0.9212864788 0.9005453652 0.6824611938
C -0.1048373495 0.3251552501 1.5910369165
C -0.991596118 1.5259576282 2.0901104372
O -2.396750265 1.3371899351 1.6596381766
C -2.4918443888 1.4775943792 0.2381109199
C -3.9679950878 1.2248746586 -0.2264890946
C -4.0854452527 -0.0268980968 -1.1997670927
C -2.7540502458 -0.7682202073 -1.572491957
O -2.3463200239 -0.964209663 -2.7397884019
O 4.1592234469 -1.4012850163 1.3773781891
O -2.1007114871 -1.281911629 -0.3994417562
O -1.5270322219 1.7692798385 -0.5018231284
C -1.0287290644 -2.2366934512 -0.7967867281
C -4.9407757506 0.786244755 0.9444975113
C -6.4304438186 0.8937377712 0.4261342715
C -6.5282576024 -0.3794973726 -0.4936876704
C -5.0661748968 -0.9604258979 -0.3588543691
O -4.7076777147 -0.6732979611 1.0468394678
H -4.3234958617 2.1392806844 -0.7358040737
H -4.5471277385 0.2700116596 -2.1580199965
H -4.7362484537 1.2798094261 1.9131588736
H -7.1362912913 0.8385622731 1.2700392411
H -6.6107936075 1.8309390893 -0.1243860891
H -7.2647267992 -1.1020414666 -0.1070577303
H -6.7857217331 -0.1357440965 -1.5368149359
H -4.9655887728 -2.0423179669 -0.5719352012
O 1.5990840805 -1.3438377613 0.37435097
C 4.034948131 -2.6405242993 2.1750192477
C 5.3027745246 0.5967362276 -0.2922654826
C 5.5641040712 1.7230483763 -1.3700664642
C 4.2933523518 2.6322230244 -1.1772095134
C 3.526435196 1.8419103904 -0.0453834271
O 4.6166480186 1.3150076715 0.8059567115
H 4.3554689159 -0.6556060472 -1.9014630009
H 2.4576031849 0.7638205804 -1.6840669613
H 4.8180267902 -3.3805258905 1.9115808428
H 6.2098861361 0.0876247246 0.0865117934
H 6.4921104483 2.2700248712 -1.1394801544
H 5.6407616079 1.3107467785 -2.3888476645
H 4.5668119168 3.6395534375 -0.8246779734
H 3.6938429577 2.7300035091 -2.0963710564
H 2.8077166908 2.433196087 0.5540217156
H 3.040970581 -3.1119002043 2.029433338
H 4.1496507396 -2.3378094432 3.2320957108
H -0.0771773909 -1.9591203052 -0.2899707657
H -0.9044066666 -2.202261873 -1.8968970148
H -1.3334037712 -3.2544321391 -0.4832479199
H -1.0282861738 1.5653898524 3.1962274695
H -0.5687761774 2.4759238972 1.6958431974
H 0.3868836592 -0.1985624813 2.4385080114
H -0.7615332384 -0.3969897559 1.0541893443
$end

$rem
JOBTYPE                   OPT
METHOD                    B3LYP
DFT_D                     d3_op
BASIS                     STO-3G
GEOM_OPT_MAX_CYCLES       100
GEOM_OPT_TOL_GRADIENT     300
GEOM_OPT_TOL_DISPLACEMENT 1200
GEOM_OPT_TOL_ENERGY       100
SYMMETRY                  False
THRESH                    12
SCF_CONVERGENCE           8
MAX_SUB_FILE_NUM          128
MEM_STATIC                400
MEM_TOTAL                 4000
$end
--------------------------------------------------------------

   16   -1510.2864878471      5.76E-09 Convergence criterion met
 Total energy in the final basis set = -1510.28648785
   15   -1510.2277670238      4.85E-09 Convergence criterion met
 Total energy in the final basis set = -1510.22776702
   15   -1510.2861514793      4.63E-09 Convergence criterion met
 Total energy in the final basis set = -1510.28615148
   15   -1510.2848955225      2.67E-09 Convergence criterion met
 Total energy in the final basis set = -1510.28489552
   14   -1510.2859467730      2.37E-09 Convergence criterion met
 Total energy in the final basis set = -1510.28594677
   14   -1510.2851791973      7.22E-09 Convergence criterion met
 Total energy in the final basis set = -1510.28517920
   13   -1510.2866232007      5.26E-09 Convergence criterion met
 Total energy in the final basis set = -1510.28662320
   13   -1510.2868693135      8.35E-09 Convergence criterion met
   12   -1510.2922959431      3.26E-09 Convergence criterion met
 Total energy in the final basis set = -1510.29229594
   11   -1510.2923668767      7.58E-09 Convergence criterion met
 Total energy in the final basis set = -1510.29236688
   10   -1510.2923867410      7.19E-09 Convergence criterion met
 Total energy in the final basis set = -1510.29238674
   11   -1510.2923843564      3.80E-09 Convergence criterion met
 Total energy in the final basis set = -1510.29238436
   10   -1510.2924224262      9.30E-09 Convergence criterion met
 Total energy in the final basis set = -1510.29242243
   10   -1510.2924331138      7.18E-09 Convergence criterion met
 Total energy in the final basis set = -1510.29243311

             Standard Nuclear Orientation (Angstroms)
    I     Atom           X                Y                Z
 ----------------------------------------------------------------
    1      O       2.8336309644    -2.9855003328    -0.1937275006
    2      C       3.1720092445    -1.8127661310     0.0773095527
    3      C       3.1004838272    -0.5703152024    -0.8751418772
    4      C       2.1471048419     0.5824909707    -0.3492116860
    5      C       1.3795214395     0.2139761394     0.9643252454
    6      O       1.2014850220     1.3763807023     1.7732257032
    7      C       0.1830330782     1.1278554799     2.8203945338
    8      C      -1.0168807164     2.1345388912     2.6204288316
    9      O      -2.2426610064     1.5854866425     1.9878084900
   10      C      -2.0297299103     1.2121338573     0.6245743557
   11      C      -3.4181378217     0.9605866070    -0.0580456476
   12      C      -3.3195641531     0.1347316917    -1.4082676262
   13      C      -1.8758994188    -0.3977937031    -1.7454544155
   14      O      -1.1124739408     0.0204685769    -2.6454725585
   15      O       3.7336842700    -1.4038864478     1.3304162150
   16      O      -1.6198415894    -1.5250059813    -0.9106812964
   17      O      -0.9107919125     1.1506662760     0.0694408959
   18      C      -0.2679679520    -2.0818019948    -1.1596418750
   19      C      -4.4080557898     0.0548670656     0.7941354915
   20      C      -5.8711760670     0.2868892178     0.2460322109
   21      C      -5.8029446238    -0.4849254417    -1.1239786835
   22      C      -4.3265896065    -1.0513041437    -1.0863283149
   23      O      -4.0924193884    -1.3201411672     0.3516221746
   24      H      -3.8687314903     1.9546153788    -0.2402119572
   25      H      -3.6588826587     0.7427214983    -2.2651050456
   26      H      -4.2843059613     0.1562571002     1.8896559773
   27      H      -6.6100319434    -0.1640526906     0.9274653409
   28      H      -6.1084897975     1.3557862024     0.1241244905
   29      H      -6.5326666825    -1.3092610608    -1.1612388976
   30      H      -5.9695575150     0.1743385482    -1.9907910375
   31      H      -4.1583266470    -1.9689638415    -1.6820550050
   32      O       0.9352083210    -0.9197351036     1.2709374476
   33      C       3.7182847664    -2.5404830151     2.2777448976
   34      C       4.4805757247     0.2148231549    -0.9550216030
   35      C       4.4212086574     1.1935126358    -2.1948615998
   36      C       3.4914710786     2.3353530147    -1.6386477863
   37      C       3.1687398458     1.7850205380    -0.1940640281
   38      O       4.4282875706     1.1220240855     0.2133146625
   39      H       2.7778303813    -0.9323642911    -1.8668077293
   40      H       1.3664230284     0.8174936598    -1.0984060281
   41      H       4.2609117762    -3.4197238735     1.8747847525
   42      H       5.3793647081    -0.4297534389    -0.9051641071
   43      H       5.4271570582     1.5715787093    -2.4369673395
   44      H       4.0026425510     0.7033950525    -3.0884758864
   45      H       4.0265518975     3.2961434952    -1.5737715068
   46      H       2.5798132017     2.4759725262    -2.2412067659
   47      H       2.8631728434     2.5420030110     0.5533105481
   48      H       2.6787529168    -2.8462047382     2.5169128752
   49      H       4.2196381639    -2.1815768231     3.1952049609
   50      H       0.3613512945    -1.8658471959    -0.2665318196
   51      H       0.1695079583    -1.6143698300    -2.0637091883
   52      H      -0.3665792212    -3.1742509370    -1.3033720083
   53      H      -1.3654603691     2.4906350652     3.6108381471
   54      H      -0.6400354123     3.0055159032     2.0393043202
   55      H       0.6545701268     1.3137699201     3.8080412056
   56      H      -0.1484168974     0.0671595702     2.7635263389
 ----------------------------------------------------------------

    9   -1510.2924373331      6.40E-09 Convergence criterion met
 Total energy in the final basis set = -1510.29243733
 Final energy is   -1510.29243733305
 **  OPTIMIZATION CONVERGED  **

                    Orbital Energies (a.u.)
 --------------------------------------------------------------

 Alpha MOs
 -- Occupied --
-18.946 -18.940 -18.924 -18.912 -18.889 -18.886 -18.883 -18.882
-18.864 -18.853 -10.112 -10.109 -10.090 -10.085 -10.084 -10.076
-10.059 -10.056 -10.056 -10.055 -10.054 -10.040 -10.034 -10.031
-10.030 -10.025 -10.019 -10.018 -10.016 -10.014  -1.026  -1.015
 -1.000  -0.992  -0.967  -0.965  -0.950  -0.942  -0.926  -0.917
 -0.762  -0.759  -0.728  -0.719  -0.714  -0.704  -0.695  -0.652
 -0.640  -0.621  -0.594  -0.580  -0.544  -0.542  -0.535  -0.533
 -0.513  -0.510  -0.486  -0.472  -0.466  -0.459  -0.448  -0.436
 -0.431  -0.428  -0.426  -0.408  -0.406  -0.404  -0.402  -0.400
 -0.390  -0.387  -0.378  -0.363  -0.359  -0.355  -0.346  -0.342
 -0.337  -0.335  -0.332  -0.327  -0.326  -0.320  -0.316  -0.314
 -0.306  -0.304  -0.300  -0.296  -0.294  -0.286  -0.282  -0.271
 -0.271  -0.262  -0.253  -0.243  -0.232  -0.230  -0.228  -0.194
 -0.178  -0.168  -0.166  -0.161  -0.148  -0.142  -0.141  -0.139
 -0.138

          Ground-State Mulliken Net Atomic Charges

     Atom                 Charge (a.u.)
  ----------------------------------------
      1 O                    -0.215053
      2 C                     0.209571
      3 C                    -0.080915
      4 C                    -0.078309
      5 C                     0.234017
      6 O                    -0.168804
      7 C                    -0.055014
      8 C                    -0.049456
      9 O                    -0.171004
     10 C                     0.217389
     11 C                    -0.077985
     12 C                    -0.080385
     13 C                     0.210804
     14 O                    -0.227293
     15 O                    -0.169716
     16 O                    -0.172764
     17 O                    -0.212631
     18 C                    -0.148577
     19 C                     0.024704
     20 C                    -0.143545
     21 C                    -0.144881
     22 C                     0.027505
     23 O                    -0.184684
     24 H                     0.084741
     25 H                     0.081756
     26 H                     0.088388
     27 H                     0.077784
     28 H                     0.072167
     29 H                     0.077600
     30 H                     0.072879
     31 H                     0.085936
     32 O                    -0.217516
     33 C                    -0.128603
     34 C                     0.026174
     35 C                    -0.144103
     36 C                    -0.143743
     37 C                     0.024201
     38 O                    -0.187828
     39 H                     0.085726
     40 H                     0.101831
     41 H                     0.088056
     42 H                     0.082493
     43 H                     0.076723
     44 H                     0.074903
     45 H                     0.076354
     46 H                     0.076365
     47 H                     0.090192
     48 H                     0.090488
     49 H                     0.088344
     50 H                     0.105480
     51 H                     0.087280
     52 H                     0.080892
     53 H                     0.092451
     54 H                     0.092853
     55 H                     0.088614
     56 H                     0.108146
  ----------------------------------------
  Sum of atomic charges =    -0.000000

                    Cartesian Multipole Moments
 -----------------------------------------------------------------
    Charge (ESU x 10^10)
                -0.0000
    Dipole Moment (Debye)
         X      -1.5639      Y       2.7145      Z       0.9972
       Tot       3.2877
    Quadrupole Moments (Debye-Ang)
        XX    -150.4877     XY      -6.3045     YY    -160.5331
        XZ      -0.5489     YZ       1.8328     ZZ    -152.8074

 Total job time:  124.58s(wall), 5935.66s(cpu)
        *  Thank you very much for using Q-Chem.  Have a nice day.  *
