 Q-Chem 5.0, Q-Chem, Inc., Pleasanton, CA (2017)
 Q-Chem 5.0.1 for Intel X86 EM64T Linux

User input:
--------------------------------------------------------------
$molecule
0  1
O 4.0772529883 -2.917446843 -0.3805240687
C 4.1052043444 -1.7493083666 0.063651482
C 4.2613296621 -0.4306888786 -0.7747534546
C 2.9798601778 0.5039232545 -0.7643736202
C 1.8037951483 -0.0904692057 0.0857162567
O 0.973413019 0.9603703202 0.5582071978
C -0.0967209051 0.4274868816 1.4424838487
C -0.9450054335 1.6662573997 1.9171837226
O -2.3765768783 1.4663284603 1.5956605996
C -2.5710269935 1.5365779182 0.1792494616
C -4.0631588819 1.2039845992 -0.1708837672
C -4.1841570602 -0.0372994348 -1.1564281719
C -2.8435991652 -0.6980367851 -1.6322397872
O -2.5014591812 -0.848063484 -2.8266392063
O 4.0931220522 -1.4129498606 1.4577222372
O -2.0922896452 -1.2022305608 -0.5134951907
O -1.6688470828 1.8257193947 -0.6368916213
C -1.0068766164 -2.0967443393 -1.0011345114
C -4.9128957213 0.6934268497 1.0642421101
C -6.4426228306 0.7236392656 0.6691326245
C -6.5423953742 -0.5363123235 -0.2685208849
C -5.0448832428 -1.036644615 -0.2610866899
O -4.591416795 -0.7521425128 1.1178337204
H -4.5090076968 2.1032721811 -0.6350755588
H -4.7318974792 0.2464448909 -2.0721956685
H -4.6578998621 1.1824745402 2.0231587127
H -7.0735216317 0.6127053617 1.5653399637
H -6.7202132739 1.6584518965 0.1564681043
H -7.205715328 -1.3058235584 0.1576410656
H -6.8943069959 -0.2885626518 -1.2827677697
H -4.9031569648 -2.1078438832 -0.5027794749
O 1.5824173328 -1.3084135922 0.2981652675
C 3.8696490405 -2.6347681188 2.2612536563
C 5.3423298553 0.5589101815 -0.1561420213
C 5.731254346 1.6214104746 -1.2594857766
C 4.4558842179 2.5430869405 -1.2585000069
C 3.5742328495 1.8406470411 -0.1525161337
O 4.5687009361 1.3497872439 0.8283496407
H 4.523181292 -0.7271748103 -1.8055237116
H 2.5990142995 0.668010163 -1.7902079931
H 4.6247121057 -3.4164069082 2.0400791803
H 6.1963696296 0.0558381254 0.3368625216
H 6.6321620694 2.1780114792 -0.9559516512
H 5.9190287503 1.153841504 -2.2391583115
H 4.7013671502 3.5740294056 -0.9578969203
H 3.9490453153 2.5707710061 -2.2362256834
H 2.8178312677 2.4816721904 0.3394205388
H 2.8604527246 -3.0561801853 2.0736720551
H 3.9515075596 -2.32610801 3.3196240637
H -0.0774647735 -1.880439179 -0.4289500643
H -0.8477848148 -1.9238674085 -2.0835304348
H -1.3094530997 -3.1500838582 -0.8373723844
H -0.9051039864 1.7849880219 3.0174440178
H -0.5436673803 2.5813296384 1.429074307
H 0.3515289462 -0.1151678531 2.3016723648
H -0.7674522165 -0.2697624193 0.8881228687
$end

$rem
JOBTYPE                   OPT
METHOD                    B3LYP
DFT_D                     d3_op
BASIS                     STO-3G
GEOM_OPT_MAX_CYCLES       100
GEOM_OPT_TOL_GRADIENT     300
GEOM_OPT_TOL_DISPLACEMENT 1200
GEOM_OPT_TOL_ENERGY       100
SYMMETRY                  False
THRESH                    12
SCF_CONVERGENCE           8
MAX_SUB_FILE_NUM          128
MEM_STATIC                400
MEM_TOTAL                 4000
$end
--------------------------------------------------------------

   16   -1510.2867506867      5.65E-09 Convergence criterion met
 Total energy in the final basis set = -1510.28675069
   15   -1510.2406029740      3.86E-09 Convergence criterion met
 Total energy in the final basis set = -1510.24060297
   14   -1510.2855235233      6.57E-09 Convergence criterion met
 Total energy in the final basis set = -1510.28552352
   14   -1510.2847563159      6.93E-09 Convergence criterion met
 Total energy in the final basis set = -1510.28475632
   14   -1510.2856390265      7.76E-09 Convergence criterion met
 Total energy in the final basis set = -1510.28563903
   14   -1510.2842274343      6.70E-09 Convergence criterion met
 Total energy in the final basis set = -1510.28422743
   13   -1510.2864971621      3.22E-09 Convergence criterion met
 Total energy in the final basis set = -1510.28649716
   13   -1510.2867568628      4.52E-09 Convergence criterion met
   11   -1510.2923515316      4.91E-09 Convergence criterion met
 Total energy in the final basis set = -1510.29235153
   11   -1510.2923712577      9.41E-09 Convergence criterion met
 Total energy in the final basis set = -1510.29237126
   11   -1510.2923963572      3.60E-09 Convergence criterion met
 Total energy in the final basis set = -1510.29239636
   11   -1510.2924217571      3.84E-09 Convergence criterion met
 Total energy in the final basis set = -1510.29242176
   11   -1510.2924299861      2.60E-09 Convergence criterion met
 Total energy in the final basis set = -1510.29242999
   11   -1510.2924384962      2.97E-09 Convergence criterion met
 Total energy in the final basis set = -1510.29243850

             Standard Nuclear Orientation (Angstroms)
    I     Atom           X                Y                Z
 ----------------------------------------------------------------
    1      O       2.8274164032    -3.0113522121    -0.1720283473
    2      C       3.1714809062    -1.8397993565     0.0969254631
    3      C       3.1085044239    -0.5991280782    -0.8585126676
    4      C       2.1586282206     0.5592067620    -0.3382714485
    5      C       1.3873884731     0.1978123862     0.9750463712
    6      O       1.2140402574     1.3626796670     1.7813356638
    7      C       0.1933460201     1.1208420068     2.8279367867
    8      C      -1.0020466685     2.1322668807     2.6247136823
    9      O      -2.2291865332     1.5875852522     1.9908869582
   10      C      -2.0156897184     1.2114886925     0.6284236454
   11      C      -3.4039845911     0.9650778381    -0.0561924630
   12      C      -3.3065702282     0.1372041438    -1.4052416560
   13      C      -1.8649325760    -0.4036381512    -1.7379678129
   14      O      -1.0968556340     0.0094663872    -2.6363968755
   15      O       3.7331717339    -1.4309859943     1.3500648411
   16      O      -1.6171786420    -1.5310890207    -0.9011301157
   17      O      -0.8961058103     1.1445078447     0.0752240656
   18      C      -0.2675691683    -2.0952979052    -1.1456482500
   19      C      -4.3998997782     0.0651333610     0.7951483332
   20      C      -5.8608435387     0.3043672275     0.2445060071
   21      C      -5.7940495104    -0.4679545108    -1.1252643610
   22      C      -4.3210299072    -1.0427360833    -1.0845012723
   23      O      -4.0909678398    -1.3119135250     0.3540716765
   24      H      -3.8496183632     1.9609398649    -0.2405927320
   25      H      -3.6400349829     0.7462313826    -2.2636655448
   26      H      -4.2773338067     0.1666614915     1.8907920427
   27      H      -6.6030505628    -0.1428817121     0.9247265521
   28      H      -6.0926966460     1.3744131192     0.1221142687
   29      H      -6.5284384798    -1.2880778866    -1.1641421217
   30      H      -5.9549945148     0.1922572505    -1.9924228005
   31      H      -4.1569708950    -1.9617664263    -1.6792894158
   32      O       0.9373727449    -0.9330992846     1.2837217698
   33      C       3.7096638420    -2.5650597366     2.3002395479
   34      C       4.4923489836     0.1796777915    -0.9360519377
   35      C       4.4416883565     1.1547234471    -2.1790799554
   36      C       3.5143507849     2.3019614333    -1.6298394400
   37      C       3.1847763241     1.7579177871    -0.1843847188
   38      O       4.4401625181     1.0908298005     0.2291744921
   39      H       2.7872087191    -0.9619544255    -1.8503371879
   40      H       1.3801985982     0.7948797891    -1.0896333205
   41      H       4.2472829031    -3.4486366226     1.9000860714
   42      H       5.3880480265    -0.4687718846    -0.8809623803
   43      H       5.4500693171     1.5280947551    -2.4183344653
   44      H       4.0246904267     0.6636358505    -3.0728902802
   45      H       4.0527575761     3.2609951518    -1.5664987484
   46      H       2.6052262336     2.4439350735    -2.2359121566
   47      H       2.8801282867     2.5186803818     0.5595310326
   48      H       2.6679984347    -2.8637900313     2.5389713971
   49      H       4.2121459989    -2.2069491783     3.2173950923
   50      H       0.3612489818    -1.8793168231    -0.2521480379
   51      H       0.1739646712    -1.6334109269    -2.0505896051
   52      H      -0.3714856725    -3.1877500299    -1.2855014130
   53      H      -1.3505798270     2.4911379222     3.6141349684
   54      H      -0.6206220251     3.0008941513     2.0430500177
   55      H       0.6648005857     1.3069415350     3.8155797510
   56      H      -0.1426125081     0.0614550736     2.7731147384
 ----------------------------------------------------------------

    9   -1510.2924399764      5.46E-09 Convergence criterion met
 Total energy in the final basis set = -1510.29243998
 Final energy is   -1510.29243997642
 **  OPTIMIZATION CONVERGED  **

                    Orbital Energies (a.u.)
 --------------------------------------------------------------

 Alpha MOs
 -- Occupied --
-18.946 -18.940 -18.924 -18.912 -18.889 -18.886 -18.883 -18.882
-18.864 -18.853 -10.112 -10.109 -10.090 -10.085 -10.084 -10.076
-10.059 -10.056 -10.056 -10.055 -10.054 -10.040 -10.034 -10.031
-10.030 -10.025 -10.019 -10.018 -10.016 -10.014  -1.026  -1.015
 -1.000  -0.992  -0.967  -0.965  -0.950  -0.942  -0.926  -0.917
 -0.762  -0.759  -0.728  -0.719  -0.714  -0.704  -0.695  -0.652
 -0.640  -0.621  -0.594  -0.580  -0.544  -0.542  -0.535  -0.533
 -0.513  -0.510  -0.486  -0.472  -0.466  -0.459  -0.448  -0.436
 -0.431  -0.428  -0.426  -0.408  -0.406  -0.404  -0.402  -0.400
 -0.390  -0.387  -0.378  -0.363  -0.359  -0.355  -0.346  -0.342
 -0.337  -0.335  -0.332  -0.327  -0.326  -0.320  -0.316  -0.314
 -0.306  -0.304  -0.300  -0.296  -0.294  -0.286  -0.282  -0.271
 -0.271  -0.262  -0.253  -0.243  -0.232  -0.230  -0.228  -0.194
 -0.178  -0.168  -0.166  -0.161  -0.148  -0.142  -0.141  -0.139
 -0.138

          Ground-State Mulliken Net Atomic Charges

     Atom                 Charge (a.u.)
  ----------------------------------------
      1 O                    -0.215045
      2 C                     0.209571
      3 C                    -0.080918
      4 C                    -0.078305
      5 C                     0.234038
      6 O                    -0.168764
      7 C                    -0.055025
      8 C                    -0.049465
      9 O                    -0.170999
     10 C                     0.217367
     11 C                    -0.077994
     12 C                    -0.080371
     13 C                     0.210799
     14 O                    -0.227311
     15 O                    -0.169736
     16 O                    -0.172750
     17 O                    -0.212629
     18 C                    -0.148585
     19 C                     0.024700
     20 C                    -0.143532
     21 C                    -0.144885
     22 C                     0.027497
     23 O                    -0.184663
     24 H                     0.084739
     25 H                     0.081750
     26 H                     0.088392
     27 H                     0.077790
     28 H                     0.072168
     29 H                     0.077600
     30 H                     0.072878
     31 H                     0.085927
     32 O                    -0.217563
     33 C                    -0.128613
     34 C                     0.026185
     35 C                    -0.144098
     36 C                    -0.143747
     37 C                     0.024192
     38 O                    -0.187850
     39 H                     0.085716
     40 H                     0.101871
     41 H                     0.088069
     42 H                     0.082497
     43 H                     0.076725
     44 H                     0.074899
     45 H                     0.076350
     46 H                     0.076374
     47 H                     0.090203
     48 H                     0.090475
     49 H                     0.088342
     50 H                     0.105485
     51 H                     0.087264
     52 H                     0.080912
     53 H                     0.092453
     54 H                     0.092844
     55 H                     0.088620
     56 H                     0.108157
  ----------------------------------------
  Sum of atomic charges =    -0.000000

                    Cartesian Multipole Moments
 -----------------------------------------------------------------
    Charge (ESU x 10^10)
                -0.0000
    Dipole Moment (Debye)
         X      -1.5519      Y       2.7225      Z       0.9887
       Tot       3.2860
    Quadrupole Moments (Debye-Ang)
        XX    -150.5704     XY      -6.3292     YY    -160.5386
        XZ      -0.5285     YZ       1.8509     ZZ    -152.7822

 Total job time:  130.64s(wall), 6220.11s(cpu)
        *  Thank you very much for using Q-Chem.  Have a nice day.  *
