 Q-Chem 5.0, Q-Chem, Inc., Pleasanton, CA (2017)
 Q-Chem 5.0.1 for Intel X86 EM64T Linux

User input:
--------------------------------------------------------------
$molecule
0  1
O -3.94934 -3.66094 2.70899
C -3.26408 -4.56952 2.26188
C -3.36658 -6.02376 2.66595
C -3.86304 -7.01555 1.60118
C -4.03218 -6.47185 0.19979
O -3.90273 -7.48315 -0.70902
C -3.96486 -7.032 -2.06618
C -3.80145 -8.21086 -3.01996
O -4.91067 -8.26068 -3.93102
C -6.10047 -8.61096 -3.38254
C -7.24607 -8.53363 -4.36349
C -8.38837 -7.59341 -3.9519
C -8.07226 -6.61902 -2.83506
O -8.69372 -6.51588 -1.78734
O -2.33164 -4.27144 1.31588
O -7.07866 -5.72174 -3.07227
O -6.23973 -9.00908 -2.23218
C -6.82331 -4.62534 -2.27312
C -6.93619 -7.97598 -5.77564
C -7.9766 -8.48927 -6.77256
C -9.19711 -7.69933 -6.34539
C -8.58263 -6.80941 -5.26087
O -7.25804 -6.60906 -5.6962
H -7.60663 -9.58104 -4.47564
H -9.2954 -8.15771 -3.63997
H -5.91936 -8.2225 -6.14925
H -7.6641 -8.13639 -7.78176
H -8.10965 -9.5922 -6.7983
H -9.53781 -7.08496 -7.20831
H -10.04185 -8.30458 -5.95083
H -9.19325 -5.89137 -5.11232
O -4.36799 -5.32883 -0.08361
C -2.10955 -3.00726 0.81139
C -1.99959 -6.60409 3.04837
C -2.18225 -7.82067 3.95236
C -2.69547 -8.83189 2.95299
C -2.65565 -8.0007 1.66547
O -1.53988 -7.16411 1.84692
H -4.05309 -6.0416 3.54262
H -4.79839 -7.55622 1.86625
H -1.80452 -2.31727 1.62681
H -1.3307 -5.85844 3.53222
H -1.17498 -8.14349 4.30027
H -2.83966 -7.64415 4.83086
H -1.95405 -9.6596 2.88487
H -3.70379 -9.2475 3.16659
H -2.59107 -8.70099 0.80605
H -3.02973 -2.62522 0.31963
H -1.29624 -3.05422 0.05862
H -5.94396 -4.07901 -2.67155
H -6.61105 -4.9482 -1.23337
H -7.70017 -3.94369 -2.27164
H -2.86923 -8.06641 -3.60685
H -3.69003 -9.17977 -2.48184
H -3.15941 -6.28846 -2.26642
H -4.92921 -6.52921 -2.24475
$end

$opt
CONSTRAINT
tors           1           2           3           4    +113.320
tors           3           4           5           6    +153.956
tors           4           5           6           7    -176.209
tors           5           6           7           8    +179.514
tors           6           7           8           9    +125.024
tors           7           8           9          10     -69.750
tors           8           9          10          11    +175.198
tors           9          10          11          12    -121.682
tors          11          12          13          14    -123.686
ENDCONSTRAINT
$end

$rem
JOBTYPE                   OPT
METHOD                    B3LYP
DFT_D                     d3_op
BASIS                     STO-3G
GEOM_OPT_MAX_CYCLES       100
GEOM_OPT_TOL_GRADIENT     300
GEOM_OPT_TOL_DISPLACEMENT 1200
GEOM_OPT_TOL_ENERGY       100
SYMMETRY                  False
THRESH                    12
SCF_CONVERGENCE           8
MAX_SUB_FILE_NUM          128
MEM_STATIC                400
MEM_TOTAL                 4000
$end
--------------------------------------------------------------

   15   -1510.1584514439      9.03E-09 Convergence criterion met
 Total energy in the final basis set = -1510.15845144
   13   -1510.2272397963      7.73E-09 Convergence criterion met
 Total energy in the final basis set = -1510.22723980
   14   -1510.2635938624      1.90E-09 Convergence criterion met
 Total energy in the final basis set = -1510.26359386
   14   -1510.2782142479      4.82E-09 Convergence criterion met
 Total energy in the final basis set = -1510.27821425
   14   -1510.2778736304      6.19E-09 Convergence criterion met
 Total energy in the final basis set = -1510.27787363
   14   -1510.2812215774      5.64E-09 Convergence criterion met
 Total energy in the final basis set = -1510.28122158
   13   -1510.2827490281      8.31E-09 Convergence criterion met
 Total energy in the final basis set = -1510.28274903
   12   -1510.2833166810      6.81E-09 Convergence criterion met
   11   -1510.2867629596      3.25E-09 Convergence criterion met
 Total energy in the final basis set = -1510.28676296
    9   -1510.2867667277      7.74E-09 Convergence criterion met
 Total energy in the final basis set = -1510.28676673
    9   -1510.2867687752      5.51E-09 Convergence criterion met
 Total energy in the final basis set = -1510.28676878
    9   -1510.2867693219      6.28E-09 Convergence criterion met
 Total energy in the final basis set = -1510.28676932
    9   -1510.2867681644      6.27E-09 Convergence criterion met
 Total energy in the final basis set = -1510.28676816
    9   -1510.2867676819      3.72E-09 Convergence criterion met
 Total energy in the final basis set = -1510.28676768

             Standard Nuclear Orientation (Angstroms)
    I     Atom           X                Y                Z
 ----------------------------------------------------------------
    1      O       4.0772529883    -2.9174468430    -0.3805240687
    2      C       4.1052043444    -1.7493083666     0.0636514820
    3      C       4.2613296621    -0.4306888786    -0.7747534546
    4      C       2.9798601778     0.5039232545    -0.7643736202
    5      C       1.8037951483    -0.0904692057     0.0857162567
    6      O       0.9734130190     0.9603703202     0.5582071978
    7      C      -0.0967209051     0.4274868816     1.4424838487
    8      C      -0.9450054335     1.6662573997     1.9171837226
    9      O      -2.3765768783     1.4663284603     1.5956605996
   10      C      -2.5710269935     1.5365779182     0.1792494616
   11      C      -4.0631588819     1.2039845992    -0.1708837672
   12      C      -4.1841570602    -0.0372994348    -1.1564281719
   13      C      -2.8435991652    -0.6980367851    -1.6322397872
   14      O      -2.5014591812    -0.8480634840    -2.8266392063
   15      O       4.0931220522    -1.4129498606     1.4577222372
   16      O      -2.0922896452    -1.2022305608    -0.5134951907
   17      O      -1.6688470828     1.8257193947    -0.6368916213
   18      C      -1.0068766164    -2.0967443393    -1.0011345114
   19      C      -4.9128957213     0.6934268497     1.0642421101
   20      C      -6.4426228306     0.7236392656     0.6691326245
   21      C      -6.5423953742    -0.5363123235    -0.2685208849
   22      C      -5.0448832428    -1.0366446150    -0.2610866899
   23      O      -4.5914167950    -0.7521425128     1.1178337204
   24      H      -4.5090076968     2.1032721811    -0.6350755588
   25      H      -4.7318974792     0.2464448909    -2.0721956685
   26      H      -4.6578998621     1.1824745402     2.0231587127
   27      H      -7.0735216317     0.6127053617     1.5653399637
   28      H      -6.7202132739     1.6584518965     0.1564681043
   29      H      -7.2057153280    -1.3058235584     0.1576410656
   30      H      -6.8943069959    -0.2885626518    -1.2827677697
   31      H      -4.9031569648    -2.1078438832    -0.5027794749
   32      O       1.5824173328    -1.3084135922     0.2981652675
   33      C       3.8696490405    -2.6347681188     2.2612536563
   34      C       5.3423298553     0.5589101815    -0.1561420213
   35      C       5.7312543460     1.6214104746    -1.2594857766
   36      C       4.4558842179     2.5430869405    -1.2585000069
   37      C       3.5742328495     1.8406470411    -0.1525161337
   38      O       4.5687009361     1.3497872439     0.8283496407
   39      H       4.5231812920    -0.7271748103    -1.8055237116
   40      H       2.5990142995     0.6680101630    -1.7902079931
   41      H       4.6247121057    -3.4164069082     2.0400791803
   42      H       6.1963696296     0.0558381254     0.3368625216
   43      H       6.6321620694     2.1780114792    -0.9559516512
   44      H       5.9190287503     1.1538415040    -2.2391583115
   45      H       4.7013671502     3.5740294056    -0.9578969203
   46      H       3.9490453153     2.5707710061    -2.2362256834
   47      H       2.8178312677     2.4816721904     0.3394205388
   48      H       2.8604527246    -3.0561801853     2.0736720551
   49      H       3.9515075596    -2.3261080100     3.3196240637
   50      H      -0.0774647735    -1.8804391790    -0.4289500643
   51      H      -0.8477848148    -1.9238674085    -2.0835304348
   52      H      -1.3094530997    -3.1500838582    -0.8373723844
   53      H      -0.9051039864     1.7849880219     3.0174440178
   54      H      -0.5436673803     2.5813296384     1.4290743070
   55      H       0.3515289462    -0.1151678531     2.3016723648
   56      H      -0.7674522165    -0.2697624193     0.8881228687
 ----------------------------------------------------------------

    9   -1510.2867671604      2.00E-09 Convergence criterion met
 Total energy in the final basis set = -1510.28676716
 Final energy is   -1510.28676716043
 **  OPTIMIZATION CONVERGED  **

                    Orbital Energies (a.u.)
 --------------------------------------------------------------

 Alpha MOs
 -- Occupied --
-18.946 -18.939 -18.928 -18.921 -18.889 -18.886 -18.884 -18.877
-18.874 -18.861 -10.110 -10.103 -10.097 -10.089 -10.078 -10.072
-10.061 -10.059 -10.058 -10.058 -10.054 -10.041 -10.040 -10.038
-10.038 -10.033 -10.021 -10.020 -10.019 -10.018  -1.023  -1.016
 -1.005  -0.999  -0.971  -0.968  -0.945  -0.940  -0.931  -0.924
 -0.764  -0.762  -0.729  -0.722  -0.715  -0.706  -0.695  -0.652
 -0.649  -0.618  -0.597  -0.582  -0.546  -0.544  -0.538  -0.536
 -0.518  -0.512  -0.489  -0.473  -0.468  -0.462  -0.445  -0.442
 -0.434  -0.431  -0.429  -0.413  -0.409  -0.405  -0.403  -0.400
 -0.391  -0.383  -0.370  -0.368  -0.362  -0.357  -0.349  -0.344
 -0.342  -0.341  -0.335  -0.332  -0.329  -0.322  -0.321  -0.312
 -0.308  -0.305  -0.305  -0.300  -0.298  -0.290  -0.282  -0.275
 -0.271  -0.261  -0.256  -0.243  -0.242  -0.235  -0.233  -0.185
 -0.180  -0.171  -0.165  -0.161  -0.159  -0.151  -0.144  -0.143
 -0.140

          Ground-State Mulliken Net Atomic Charges

     Atom                 Charge (a.u.)
  ----------------------------------------
      1 O                    -0.216298
      2 C                     0.212024
      3 C                    -0.081030
      4 C                    -0.077334
      5 C                     0.221909
      6 O                    -0.164350
      7 C                    -0.053689
      8 C                    -0.047522
      9 O                    -0.168879
     10 C                     0.210686
     11 C                    -0.078438
     12 C                    -0.079250
     13 C                     0.209048
     14 O                    -0.210810
     15 O                    -0.171882
     16 O                    -0.176202
     17 O                    -0.213741
     18 C                    -0.151293
     19 C                     0.024071
     20 C                    -0.144616
     21 C                    -0.143661
     22 C                     0.026229
     23 O                    -0.186642
     24 H                     0.085403
     25 H                     0.085889
     26 H                     0.091765
     27 H                     0.077951
     28 H                     0.073060
     29 H                     0.078213
     30 H                     0.074194
     31 H                     0.083326
     32 O                    -0.216411
     33 C                    -0.128613
     34 C                     0.026423
     35 C                    -0.144150
     36 C                    -0.143985
     37 C                     0.024096
     38 O                    -0.187938
     39 H                     0.084093
     40 H                     0.089060
     41 H                     0.087669
     42 H                     0.084207
     43 H                     0.077447
     44 H                     0.073925
     45 H                     0.077770
     46 H                     0.074270
     47 H                     0.090149
     48 H                     0.090296
     49 H                     0.087188
     50 H                     0.102877
     51 H                     0.096184
     52 H                     0.079282
     53 H                     0.092225
     54 H                     0.098158
     55 H                     0.088949
     56 H                     0.108700
  ----------------------------------------
  Sum of atomic charges =    -0.000000

                    Cartesian Multipole Moments
 -----------------------------------------------------------------
    Charge (ESU x 10^10)
                -0.0000
    Dipole Moment (Debye)
         X      -1.3153      Y       1.9768      Z       0.6940
       Tot       2.4737
    Quadrupole Moments (Debye-Ang)
        XX    -142.7958     XY       0.7568     YY    -161.1801
        XZ      -2.3251     YZ      -2.5900     ZZ    -161.4232

 Total job time:  120.54s(wall), 5739.80s(cpu)
        *  Thank you very much for using Q-Chem.  Have a nice day.  *
