 Q-Chem 5.0, Q-Chem, Inc., Pleasanton, CA (2017)
 Q-Chem 5.0.1 for Intel X86 EM64T Linux

User input:
--------------------------------------------------------------
$molecule
0  1
O -3.94934 -3.66094 2.70899
C -3.26408 -4.56952 2.26188
C -3.36658 -6.02376 2.66595
C -2.1637 -6.92746 2.34928
C -0.92277 -6.23941 1.8251
O -0.11521 -7.14904 1.20394
C -0.46418 -7.36821 -0.16699
C -1.95457 -7.12089 -0.376
O -2.483 -8.07606 -1.30943
C -2.35085 -7.74684 -2.61836
C -1.01371 -8.14853 -3.19399
C -0.62306 -7.42399 -4.49042
C -1.42606 -6.18197 -4.82097
O -0.96204 -5.06588 -5.00424
O -2.56924 -4.29441 1.12494
O -2.72732 -6.36506 -5.16644
O -3.35922 -7.80363 -3.30239
C -3.58183 -5.36186 -5.57637
C 0.4622 -8.38776 -2.71086
C 1.248 -9.34787 -3.64366
C 1.64357 -8.41529 -4.75693
C 0.88596 -7.17283 -4.33037
O 1.08569 -7.15089 -2.94354
H -1.29515 -9.19289 -3.4593
H -0.80085 -8.06976 -5.38211
H 0.63095 -8.88898 -1.76084
H 2.18642 -9.71034 -3.1642
H 0.64004 -10.22483 -3.95436
H 2.72879 -8.17894 -4.66904
H 1.42801 -8.7843 -5.78291
H 1.26325 -6.29078 -4.89191
O -0.43566 -5.25674 2.36737
C -2.45738 -3.04625 0.54796
C -3.42223 -6.11954 4.20375
C -3.98714 -7.47548 4.63274
C -2.79126 -8.35953 4.37789
C -1.80446 -7.33391 3.81039
O -2.07334 -6.18596 4.57258
H -4.32028 -6.39867 2.23398
H -2.36366 -7.9418 1.93294
H -1.97545 -2.34005 1.25735
H -4.0159 -5.30411 4.67238
H -4.19259 -7.46553 5.72671
H -4.91068 -7.75219 4.07967
H -2.39561 -8.70453 5.36005
H -2.97673 -9.24179 3.72837
H -0.77013 -7.73702 3.90439
H -3.46011 -2.66529 0.25916
H -1.82882 -3.12334 -0.36265
H -4.57942 -5.79824 -5.78791
H -3.19693 -4.88417 -6.50263
H -3.68738 -4.59951 -4.77506
H -2.84794 -7.03768 0.22972
H -1.99644 -6.08568 -0.7889
H -0.41275 -8.46906 -0.16585
H 0.20683 -6.79899 -0.82532
$end

$opt
CONSTRAINT
tors           1           2           3           4    -161.053
tors           3           4           5           6    -161.053
tors           4           5           6           7     +85.263
tors           5           6           7           8     -28.421
tors           6           7           8           9    -142.105
tors           7           8           9          10     -85.263
tors           8           9          10          11     +85.263
tors           9          10          11          12    -161.053
tors          11          12          13          14    +123.158
ENDCONSTRAINT
$end

$rem
JOBTYPE                   OPT
METHOD                    B3LYP
DFT_D                     d3_op
BASIS                     STO-3G
GEOM_OPT_MAX_CYCLES       100
GEOM_OPT_TOL_GRADIENT     300
GEOM_OPT_TOL_DISPLACEMENT 1200
GEOM_OPT_TOL_ENERGY       100
SYMMETRY                  False
THRESH                    12
SCF_CONVERGENCE           8
MAX_SUB_FILE_NUM          128
MEM_STATIC                400
MEM_TOTAL                 4000
$end
--------------------------------------------------------------

   16   -1509.9824454393      2.20E-09 Convergence criterion met
 Total energy in the final basis set = -1509.98244544
   14   -1510.0711836850      3.80E-09 Convergence criterion met
 Total energy in the final basis set = -1510.07118368
   14   -1510.1256372010      8.00E-09 Convergence criterion met
 Total energy in the final basis set = -1510.12563720
   14   -1510.1609854346      4.40E-09 Convergence criterion met
 Total energy in the final basis set = -1510.16098543
   14   -1510.1812366842      4.99E-09 Convergence criterion met
 Total energy in the final basis set = -1510.18123668
   14   -1510.1919442030      6.44E-09 Convergence criterion met
 Total energy in the final basis set = -1510.19194420
   14   -1510.1989614959      3.95E-09 Convergence criterion met
 Total energy in the final basis set = -1510.19896150
   13   -1510.2023915108      3.14E-09 Convergence criterion met
    9   -1510.2138565859      9.32E-09 Convergence criterion met
 Total energy in the final basis set = -1510.21385659
   11   -1510.2138668926      2.61E-09 Convergence criterion met
 Total energy in the final basis set = -1510.21386689
    9   -1510.2138697561      7.37E-09 Convergence criterion met
 Total energy in the final basis set = -1510.21386976
    9   -1510.2138717575      5.79E-09 Convergence criterion met
 Total energy in the final basis set = -1510.21387176
    9   -1510.2138731485      3.30E-09 Convergence criterion met
 Total energy in the final basis set = -1510.21387315
    9   -1510.2138743438      3.06E-09 Convergence criterion met
 Total energy in the final basis set = -1510.21387434

             Standard Nuclear Orientation (Angstroms)
    I     Atom           X                Y                Z
 ----------------------------------------------------------------
    1      O       4.1783192847    -2.3536282043     1.5470609497
    2      C       3.5434124860    -1.4551123096     0.9544936925
    3      C       4.0811211415    -0.5611691532    -0.2197296777
    4      C       3.3106267570     0.7855461618    -0.5103520742
    5      C       2.4948707840     1.3298893356     0.7312456868
    6      O       1.4496194613     2.2930972139     0.4146157818
    7      C       0.1315977966     1.7298621861     0.0268649107
    8      C       0.0760591033     0.3047197178    -0.6688818531
    9      O      -0.9072282228     0.0806939554    -1.7518753645
   10      C      -2.2495871885    -0.3097733169    -1.3476434674
   11      C      -3.4067566504     0.7138791993    -0.9344026432
   12      C      -4.5109153055    -0.0698207442    -0.1129405305
   13      C      -4.5879602719    -1.6238726321    -0.3353005547
   14      O      -4.4921427974    -2.5142429612     0.5369194944
   15      O       2.1299202629    -1.2586401185     1.0942893768
   16      O      -5.1270330903    -1.8364777330    -1.6545244653
   17      O      -2.5045535605    -1.5373738307    -1.4196217478
   18      C      -5.2462938722    -3.2866681082    -1.9141650595
   19      C      -3.0103940574     1.7802839594     0.1496379054
   20      C      -4.2630130977     2.6649803097     0.5513065293
   21      C      -4.9963535774     1.7350334360     1.5874260155
   22      C      -4.1864956402     0.4040073985     1.3702772268
   23      O      -2.7844415768     0.8997070525     1.3249729818
   24      H      -3.8169228908     1.1643237856    -1.8586372717
   25      H      -5.5023546146     0.3176444780    -0.4108684567
   26      H      -2.1234790786     2.3803674494    -0.0947973217
   27      H      -3.9309117507     3.6097729833     1.0091560286
   28      H      -4.8917269183     2.9010304274    -0.3226500767
   29      H      -4.8673409170     2.1026451131     2.6182622658
   30      H      -6.0720115885     1.6198584132     1.3798450712
   31      H      -4.3001050908    -0.3832560806     2.1410369241
   32      O       2.8907143613     1.2147045300     1.9103322582
   33      C       1.5919273082    -2.1418458655     2.1532979839
   34      C       5.5756788529    -0.0554604696    -0.0392559923
   35      C       6.1794472632     0.1353323532    -1.4841587631
   36      C       5.3678786067     1.3921997259    -1.9746197364
   37      C       4.5600879776     1.7717204189    -0.6689383537
   38      O       5.4365306337     1.3387734236     0.4419769128
   39      H       4.0230948569    -1.2041673561    -1.1191516340
   40      H       2.7066581444     0.7540818213    -1.4298746783
   41      H       1.9769212662    -1.8529439581     3.1524690659
   42      H       6.1810022194    -0.6598816541     0.6641522358
   43      H       7.2578224194     0.3526371273    -1.4226665507
   44      H       6.0308086037    -0.7487311266    -2.1245960880
   45      H       6.0330007602     2.2182472134    -2.2718930449
   46      H       4.6968493292     1.1598981159    -2.8174430751
   47      H       4.3057084031     2.8451403637    -0.5696759160
   48      H       1.8488086133    -3.2043793354     1.9670415414
   49      H       0.4938554266    -2.0136572705     2.1311667711
   50      H      -5.7605096960    -3.3857718004    -2.8879234629
   51      H      -5.8366046496    -3.7981618367    -1.1264383026
   52      H      -4.2480637785    -3.7675928876    -1.9743138353
   53      H       1.0327177852     0.1195366292    -1.1887388525
   54      H      -0.0188912813    -0.4711662561     0.1210431893
   55      H      -0.2931455880     2.4842766044    -0.6699073255
   56      H      -0.5026056363     1.6896909644     0.9400989301
 ----------------------------------------------------------------

    9   -1510.2138750554      3.16E-09 Convergence criterion met
 Total energy in the final basis set = -1510.21387506
 Final energy is   -1510.21387505535
 **  OPTIMIZATION CONVERGED  **

                    Orbital Energies (a.u.)
 --------------------------------------------------------------

 Alpha MOs
 -- Occupied --
-18.936 -18.918 -18.918 -18.916 -18.904 -18.895 -18.892 -18.891
-18.877 -18.859 -10.121 -10.106 -10.103 -10.094 -10.077 -10.072
-10.067 -10.065 -10.064 -10.062 -10.062 -10.054 -10.050 -10.041
-10.040 -10.036 -10.027 -10.024 -10.024 -10.022  -1.020  -1.014
 -1.000  -0.996  -0.977  -0.973  -0.945  -0.938  -0.931  -0.924
 -0.769  -0.766  -0.727  -0.725  -0.711  -0.709  -0.705  -0.663
 -0.654  -0.622  -0.603  -0.589  -0.554  -0.548  -0.544  -0.540
 -0.518  -0.509  -0.493  -0.474  -0.466  -0.460  -0.458  -0.449
 -0.439  -0.435  -0.432  -0.413  -0.413  -0.411  -0.404  -0.401
 -0.396  -0.390  -0.376  -0.371  -0.368  -0.357  -0.356  -0.352
 -0.347  -0.342  -0.341  -0.336  -0.334  -0.330  -0.322  -0.318
 -0.314  -0.311  -0.309  -0.306  -0.299  -0.293  -0.282  -0.276
 -0.274  -0.258  -0.246  -0.245  -0.243  -0.237  -0.231  -0.182
 -0.177  -0.169  -0.161  -0.157  -0.154  -0.153  -0.152  -0.145
 -0.143

          Ground-State Mulliken Net Atomic Charges

     Atom                 Charge (a.u.)
  ----------------------------------------
      1 O                    -0.211456
      2 C                     0.214195
      3 C                    -0.080252
      4 C                    -0.080919
      5 C                     0.221580
      6 O                    -0.193678
      7 C                    -0.054114
      8 C                    -0.051863
      9 O                    -0.191158
     10 C                     0.223071
     11 C                    -0.076282
     12 C                    -0.082944
     13 C                     0.215706
     14 O                    -0.224050
     15 O                    -0.175944
     16 O                    -0.178420
     17 O                    -0.168527
     18 C                    -0.128677
     19 C                     0.015598
     20 C                    -0.144839
     21 C                    -0.140920
     22 C                     0.021417
     23 O                    -0.197829
     24 H                     0.089291
     25 H                     0.084726
     26 H                     0.085283
     27 H                     0.079315
     28 H                     0.074296
     29 H                     0.079231
     30 H                     0.075312
     31 H                     0.091994
     32 O                    -0.177787
     33 C                    -0.128451
     34 C                     0.025789
     35 C                    -0.142242
     36 C                    -0.145038
     37 C                     0.024860
     38 O                    -0.186035
     39 H                     0.084542
     40 H                     0.079916
     41 H                     0.093265
     42 H                     0.091723
     43 H                     0.079392
     44 H                     0.074045
     45 H                     0.079463
     46 H                     0.073331
     47 H                     0.085275
     48 H                     0.092176
     49 H                     0.091045
     50 H                     0.085624
     51 H                     0.087049
     52 H                     0.088657
     53 H                     0.091490
     54 H                     0.091329
     55 H                     0.081759
     56 H                     0.089684
  ----------------------------------------
  Sum of atomic charges =    -0.000000

                    Cartesian Multipole Moments
 -----------------------------------------------------------------
    Charge (ESU x 10^10)
                 0.0000
    Dipole Moment (Debye)
         X      -2.0435      Y       1.3228      Z      -3.1004
       Tot       3.9419
    Quadrupole Moments (Debye-Ang)
        XX    -155.1480     XY      -8.1853     YY    -162.1544
        XZ     -11.6875     YZ      -2.2125     ZZ    -163.2223

 Total job time:  87.25s(wall), 4154.57s(cpu)
        *  Thank you very much for using Q-Chem.  Have a nice day.  *
