 Q-Chem 5.0, Q-Chem, Inc., Pleasanton, CA (2017)
 Q-Chem 5.0.1 for Intel X86 EM64T Linux

User input:
--------------------------------------------------------------
$molecule
0  1
O 4.1783192847 -2.3536282043 1.5470609497
C 3.543412486 -1.4551123096 0.9544936925
C 4.0811211415 -0.5611691532 -0.2197296777
C 3.310626757 0.7855461618 -0.5103520742
C 2.494870784 1.3298893356 0.7312456868
O 1.4496194613 2.2930972139 0.4146157818
C 0.1315977966 1.7298621861 0.0268649107
C 0.0760591033 0.3047197178 -0.6688818531
O -0.9072282228 0.0806939554 -1.7518753645
C -2.2495871885 -0.3097733169 -1.3476434674
C -3.4067566504 0.7138791993 -0.9344026432
C -4.5109153055 -0.0698207442 -0.1129405305
C -4.5879602719 -1.6238726321 -0.3353005547
O -4.4921427974 -2.5142429612 0.5369194944
O 2.1299202629 -1.2586401185 1.0942893768
O -5.1270330903 -1.836477733 -1.6545244653
O -2.5045535605 -1.5373738307 -1.4196217478
C -5.2462938722 -3.2866681082 -1.9141650595
C -3.0103940574 1.7802839594 0.1496379054
C -4.2630130977 2.6649803097 0.5513065293
C -4.9963535774 1.735033436 1.5874260155
C -4.1864956402 0.4040073985 1.3702772268
O -2.7844415768 0.8997070525 1.3249729818
H -3.8169228908 1.1643237856 -1.8586372717
H -5.5023546146 0.317644478 -0.4108684567
H -2.1234790786 2.3803674494 -0.0947973217
H -3.9309117507 3.6097729833 1.0091560286
H -4.8917269183 2.9010304274 -0.3226500767
H -4.867340917 2.1026451131 2.6182622658
H -6.0720115885 1.6198584132 1.3798450712
H -4.3001050908 -0.3832560806 2.1410369241
O 2.8907143613 1.21470453 1.9103322582
C 1.5919273082 -2.1418458655 2.1532979839
C 5.5756788529 -0.0554604696 -0.0392559923
C 6.1794472632 0.1353323532 -1.4841587631
C 5.3678786067 1.3921997259 -1.9746197364
C 4.5600879776 1.7717204189 -0.6689383537
O 5.4365306337 1.3387734236 0.4419769128
H 4.0230948569 -1.2041673561 -1.119151634
H 2.7066581444 0.7540818213 -1.4298746783
H 1.9769212662 -1.8529439581 3.1524690659
H 6.1810022194 -0.6598816541 0.6641522358
H 7.2578224194 0.3526371273 -1.4226665507
H 6.0308086037 -0.7487311266 -2.124596088
H 6.0330007602 2.2182472134 -2.2718930449
H 4.6968493292 1.1598981159 -2.8174430751
H 4.3057084031 2.8451403637 -0.569675916
H 1.8488086133 -3.2043793354 1.9670415414
H 0.4938554266 -2.0136572705 2.1311667711
H -5.760509696 -3.3857718004 -2.8879234629
H -5.8366046496 -3.7981618367 -1.1264383026
H -4.2480637785 -3.7675928876 -1.9743138353
H 1.0327177852 0.1195366292 -1.1887388525
H -0.0188912813 -0.4711662561 0.1210431893
H -0.293145588 2.4842766044 -0.6699073255
H -0.5026056363 1.6896909644 0.9400989301
$end

$rem
JOBTYPE                   OPT
METHOD                    B3LYP
DFT_D                     d3_op
BASIS                     STO-3G
GEOM_OPT_MAX_CYCLES       100
GEOM_OPT_TOL_GRADIENT     300
GEOM_OPT_TOL_DISPLACEMENT 1200
GEOM_OPT_TOL_ENERGY       100
SYMMETRY                  False
THRESH                    12
SCF_CONVERGENCE           8
MAX_SUB_FILE_NUM          128
MEM_STATIC                400
MEM_TOTAL                 4000
$end
--------------------------------------------------------------

   16   -1510.2136608837      4.11E-09 Convergence criterion met
 Total energy in the final basis set = -1510.21366088
   13   -1510.2179496355      9.37E-09 Convergence criterion met
 Total energy in the final basis set = -1510.21794964
   13   -1510.2242766121      6.71E-09 Convergence criterion met
 Total energy in the final basis set = -1510.22427661
   13   -1510.2316923757      6.87E-09 Convergence criterion met
 Total energy in the final basis set = -1510.23169238
   13   -1510.2390406308      6.78E-09 Convergence criterion met
 Total energy in the final basis set = -1510.23904063
   13   -1510.2457819558      5.46E-09 Convergence criterion met
 Total energy in the final basis set = -1510.24578196
   14   -1510.2518399779      2.46E-09 Convergence criterion met
 Total energy in the final basis set = -1510.25183998
   13   -1510.2575398987      7.19E-09 Convergence criterion met
   10   -1510.2926292318      9.45E-09 Convergence criterion met
 Total energy in the final basis set = -1510.29262923
   11   -1510.2926203820      5.05E-09 Convergence criterion met
 Total energy in the final basis set = -1510.29262038
   11   -1510.2926125638      9.60E-09 Convergence criterion met
 Total energy in the final basis set = -1510.29261256
   11   -1510.2926104771      9.65E-09 Convergence criterion met
 Total energy in the final basis set = -1510.29261048
   12   -1510.2925873993      3.33E-09 Convergence criterion met
 Total energy in the final basis set = -1510.29258740
   11   -1510.2925962544      7.21E-09 Convergence criterion met
 Total energy in the final basis set = -1510.29259625

             Standard Nuclear Orientation (Angstroms)
    I     Atom           X                Y                Z
 ----------------------------------------------------------------
    1      O       2.6853869438    -2.6475065801     1.1855760696
    2      C       2.7655010489    -2.0267451016     0.1040444477
    3      C       4.0580199666    -1.4241830090    -0.5500511992
    4      C       3.9151727582     0.0980178502    -0.9777653871
    5      C       2.5290206919     0.7092174734    -0.5896615583
    6      O       1.9112046330     1.2213655703    -1.7844288135
    7      C       0.5579382454     1.7359263452    -1.4700140410
    8      C      -0.4976745720     0.8834838871    -2.2629067918
    9      O      -1.8837183886     1.3123111474    -1.9442114764
   10      C      -2.3454956952     0.7129744363    -0.7350621137
   11      C      -3.7804166051     1.2545296390    -0.4334821071
   12      C      -4.5772160248     0.3509355095     0.5921691718
   13      C      -3.8548918529    -0.9851836642     1.0028993995
   14      O      -3.4369488591    -1.3022837496     2.1359325599
   15      O       1.6626094085    -1.7647665770    -0.7708678147
   16      O      -3.8636505452    -1.8625378403    -0.1334667929
   17      O      -1.6906145484    -0.0945158802    -0.0350957923
   18      C      -3.2224397270    -3.1476624273     0.2230777208
   19      C      -3.6913572272     2.6165633269     0.3883448469
   20      C      -5.1265906285     3.2770910039     0.4332580394
   21      C      -5.8449373044     2.3808014512     1.5101364043
   22      C      -4.7113658319     1.3318746741     1.8291828930
   23      O      -3.4719726087     2.1442121196     1.7723852285
   24      H      -4.3188797941     1.3846394526    -1.3888360141
   25      H      -5.5662861402     0.0864967683     0.1763125990
   26      H      -2.8726601279     3.2902018873     0.0678179980
   27      H      -5.0546013912     4.3262430882     0.7610993846
   28      H      -5.6270568045     3.2479095523    -0.5478928556
   29      H      -6.0975875365     2.9606419552     2.4121502753
   30      H      -6.7612699840     1.9039265534     1.1269771956
   31      H      -4.7856054034     0.8138742395     2.8049824773
   32      O       2.0228730955     0.7951982147     0.5504740116
   33      C       0.3947924733    -2.2660226981    -0.1840477199
   34      C       5.2485013598    -1.3412909328     0.4923379387
   35      C       6.5963524628    -1.1601623837    -0.3085728918
   36      C       6.4675554552     0.3373266068    -0.7782610815
   37      C       5.0883376846     0.7473662369    -0.1240839077
   38      O       5.0515978466    -0.0226371527     1.1385571395
   39      H       4.3262228679    -2.0469066870    -1.4234726588
   40      H       4.0642658003     0.2324314775    -2.0632312870
   41      H       0.5994551490    -2.7022796828     0.8134913665
   42      H       5.2356877985    -2.1489099428     1.2502437619
   43      H       7.4623050021    -1.3000917770     0.3578905984
   44      H       6.6788522983    -1.8667439616    -1.1497002327
   45      H       7.2837035640     0.9593164827    -0.3779901914
   46      H       6.4504074824     0.4387378879    -1.8751649207
   47      H       4.9644921077     1.8290835804     0.0774612167
   48      H      -0.0198647861    -3.0443591836    -0.8544233599
   49      H      -0.3238093485    -1.4188743172    -0.1004864287
   50      H      -3.1426240649    -3.7239638917    -0.7170600144
   51      H      -3.8326853353    -3.7179982364     0.9535480025
   52      H      -2.2133716911    -2.9942612617     0.6546575002
   53      H      -0.3800183885     1.0422231953    -3.3535574441
   54      H      -0.3501156609    -0.1916590940    -2.0312676618
   55      H       0.4997612473     2.8016873759    -1.7733802912
   56      H       0.3950298256     1.6419797106    -0.3729751909
 ----------------------------------------------------------------

    9   -1510.2925954783      4.07E-09 Convergence criterion met
 Total energy in the final basis set = -1510.29259548
 Final energy is   -1510.29259547832
 **  OPTIMIZATION CONVERGED  **

                    Orbital Energies (a.u.)
 --------------------------------------------------------------

 Alpha MOs
 -- Occupied --
-18.950 -18.931 -18.925 -18.924 -18.895 -18.889 -18.885 -18.874
-18.873 -18.867 -10.115 -10.098 -10.095 -10.094 -10.078 -10.067
-10.065 -10.059 -10.058 -10.058 -10.055 -10.044 -10.037 -10.037
-10.036 -10.036 -10.023 -10.021 -10.019 -10.018  -1.026  -1.011
 -1.002  -1.002  -0.972  -0.968  -0.952  -0.935  -0.930  -0.928
 -0.766  -0.762  -0.729  -0.722  -0.714  -0.705  -0.696  -0.658
 -0.650  -0.621  -0.598  -0.581  -0.548  -0.543  -0.539  -0.536
 -0.514  -0.507  -0.485  -0.475  -0.463  -0.457  -0.456  -0.450
 -0.436  -0.432  -0.428  -0.412  -0.410  -0.408  -0.404  -0.400
 -0.394  -0.380  -0.375  -0.366  -0.363  -0.357  -0.355  -0.349
 -0.346  -0.336  -0.335  -0.331  -0.328  -0.327  -0.324  -0.313
 -0.309  -0.308  -0.305  -0.302  -0.292  -0.285  -0.281  -0.275
 -0.269  -0.261  -0.248  -0.246  -0.241  -0.236  -0.232  -0.196
 -0.174  -0.170  -0.168  -0.162  -0.158  -0.150  -0.147  -0.145
 -0.141

          Ground-State Mulliken Net Atomic Charges

     Atom                 Charge (a.u.)
  ----------------------------------------
      1 O                    -0.209025
      2 C                     0.214619
      3 C                    -0.078176
      4 C                    -0.078071
      5 C                     0.214295
      6 O                    -0.173786
      7 C                    -0.059637
      8 C                    -0.050876
      9 O                    -0.168401
     10 C                     0.221173
     11 C                    -0.077499
     12 C                    -0.080590
     13 C                     0.215215
     14 O                    -0.211393
     15 O                    -0.178970
     16 O                    -0.177636
     17 O                    -0.206972
     18 C                    -0.129366
     19 C                     0.025653
     20 C                    -0.143846
     21 C                    -0.143668
     22 C                     0.024796
     23 O                    -0.187170
     24 H                     0.088437
     25 H                     0.084181
     26 H                     0.083062
     27 H                     0.078935
     28 H                     0.073836
     29 H                     0.079032
     30 H                     0.073496
     31 H                     0.091979
     32 O                    -0.209717
     33 C                    -0.154231
     34 C                     0.024533
     35 C                    -0.143858
     36 C                    -0.144104
     37 C                     0.025891
     38 O                    -0.185518
     39 H                     0.084140
     40 H                     0.086143
     41 H                     0.098493
     42 H                     0.091588
     43 H                     0.078329
     44 H                     0.072688
     45 H                     0.078102
     46 H                     0.073061
     47 H                     0.083101
     48 H                     0.074053
     49 H                     0.109359
     50 H                     0.086077
     51 H                     0.085470
     52 H                     0.093761
     53 H                     0.091830
     54 H                     0.097946
     55 H                     0.083240
     56 H                     0.105995
  ----------------------------------------
  Sum of atomic charges =    -0.000000

                    Cartesian Multipole Moments
 -----------------------------------------------------------------
    Charge (ESU x 10^10)
                -0.0000
    Dipole Moment (Debye)
         X      -1.2952      Y       0.7385      Z      -4.6486
       Tot       4.8818
    Quadrupole Moments (Debye-Ang)
        XX    -136.0308     XY      -3.8687     YY    -152.2898
        XZ      -6.8638     YZ       1.5728     ZZ    -168.5008

 Total job time:  182.31s(wall), 8694.37s(cpu)
        *  Thank you very much for using Q-Chem.  Have a nice day.  *
