 Q-Chem 5.0, Q-Chem, Inc., Pleasanton, CA (2017)
 Q-Chem 5.0.1 for Intel X86 EM64T Linux

User input:
--------------------------------------------------------------
$molecule
0  1
O -2.684648866 2.3881154498 0.5460077756
C -2.8588664011 1.5589880803 -0.3687307509
C -3.8638565037 0.3489637526 -0.4391169743
C -3.2127658395 -0.901816332 -1.1525594244
C -1.6460683884 -0.860789874 -1.2076054807
O -1.1590501902 -0.1004633496 -0.0725546164
C 0.063828198 -0.6834852936 0.4726873883
C 0.2150963807 -0.6557566242 2.0457853128
O 1.5019778992 -1.2841580113 2.3953876818
C 2.7787760088 -1.0092279693 1.781851789
C 3.0837055016 -0.9274546776 0.2154248395
C 2.4185744489 0.2639291199 -0.6265012885
C 2.0656332724 1.556985348 0.2182423649
O 2.8660522255 2.4821240163 0.4731732244
O -2.2689866439 1.6284230126 -1.6804277038
O 0.6627329942 1.6630610043 0.5142493987
O 3.7400044475 -1.0892489841 2.5853964003
C 0.3957001474 2.8510908835 1.3748817412
C 4.6037713297 -0.8391987286 -0.1916673205
C 4.7058870313 -1.4749045486 -1.6425029934
C 4.1172476601 -0.309255548 -2.5217967696
C 3.7447231977 0.7453474652 -1.4117510755
O 4.828952294 0.6006777108 -0.4170097306
H 2.645272517 -1.8781524795 -0.1494449249
H 1.6434301217 -0.0131710151 -1.3551882748
H 5.294565223 -1.2517341993 0.5691244509
H 5.7512460753 -1.7015915896 -1.905136374
H 4.1150782749 -2.4018686097 -1.71493239
H 4.8957193456 0.1135185437 -3.1770131377
H 3.2588224094 -0.6090588053 -3.1434882547
H 3.6776168759 1.7900059244 -1.7695321929
O -0.9042590694 -1.5594810135 -1.9296458467
C -1.1679978634 2.6197775768 -1.6942346386
C -4.3299647578 -0.2632874692 0.9408721246
C -5.6651008724 -1.0639685157 0.6764712745
C -5.1189325036 -2.3133214478 -0.1115102147
C -3.5645516462 -2.0387840807 -0.0816160102
O -3.3438969175 -1.3406320932 1.2075269153
H -4.7311826066 0.7056895661 -1.0255292884
H -3.6376846671 -1.11061916 -2.1491648241
H -0.3386812085 2.2482421609 -1.049498463
H -4.3589200595 0.4637370918 1.7757026369
H -6.1237733233 -1.3683633559 1.6307710509
H -6.3991210889 -0.4760846092 0.1027805153
H -5.3508176445 -3.2521706056 0.4162607074
H -5.5075080563 -2.3817812762 -1.1403151265
H -2.9201244799 -2.9370748263 -0.149734201
H -1.5071978309 3.6095967109 -1.3291145826
H -0.840211013 2.7022142105 -2.7461762423
H -0.172990609 2.5129299183 2.2612887765
H -0.2222343024 3.5751294414 0.8119378699
H 1.3584687073 3.3157770183 1.6637835661
H 0.1609440324 0.4073114277 2.3657474054
H -0.5339487875 -1.2392051878 2.6176624402
H -0.4436429594 -2.107537441 0.6106976929
H 0.4005985268 -1.6024173513 -0.0480945829
$end

$rem
JOBTYPE                   OPT
METHOD                    B3LYP
DFT_D                     d3_op
BASIS                     STO-3G
GEOM_OPT_MAX_CYCLES       100
GEOM_OPT_TOL_GRADIENT     300
GEOM_OPT_TOL_DISPLACEMENT 1200
GEOM_OPT_TOL_ENERGY       100
SYMMETRY                  False
THRESH                    12
SCF_CONVERGENCE           8
MAX_SUB_FILE_NUM          128
MEM_STATIC                400
MEM_TOTAL                 4000
$end
--------------------------------------------------------------

   17   -1510.0592113585      2.28E-09 Convergence criterion met
 Total energy in the final basis set = -1510.05921136
   14   -1510.0706224091      9.60E-09 Convergence criterion met
 Total energy in the final basis set = -1510.07062241
   14   -1510.0934505570      7.60E-09 Convergence criterion met
 Total energy in the final basis set = -1510.09345056
   14   -1510.1176312612      6.67E-09 Convergence criterion met
 Total energy in the final basis set = -1510.11763126
   14   -1510.1395358677      7.26E-09 Convergence criterion met
 Total energy in the final basis set = -1510.13953587
   13   -1510.1596852679      7.86E-09 Convergence criterion met
 Total energy in the final basis set = -1510.15968527
   14   -1510.1798052737      5.74E-09 Convergence criterion met
 Total energy in the final basis set = -1510.17980527
   13   -1510.1971715927      8.60E-09 Convergence criterion met
   11   -1510.2948527782      6.71E-09 Convergence criterion met
 Total energy in the final basis set = -1510.29485278
   12   -1510.2949117858      6.19E-09 Convergence criterion met
 Total energy in the final basis set = -1510.29491179
   11   -1510.2949357567      8.55E-09 Convergence criterion met
 Total energy in the final basis set = -1510.29493576
   11   -1510.2949447556      4.18E-09 Convergence criterion met
 Total energy in the final basis set = -1510.29494476
   10   -1510.2949500565      9.20E-09 Convergence criterion met
 Total energy in the final basis set = -1510.29495006
    9   -1510.2949503855      6.40E-09 Convergence criterion met
 Total energy in the final basis set = -1510.29495039

             Standard Nuclear Orientation (Angstroms)
    I     Atom           X                Y                Z
 ----------------------------------------------------------------
    1      O      -0.6624779607     0.5648488013    -0.0659041213
    2      C      -1.7329581642     1.0421956255    -0.5164666714
    3      C      -2.8657039624     0.2083179267    -1.1962363140
    4      C      -2.5387968813    -1.3436039885    -1.2154297766
    5      C      -1.1706467083    -1.7379775018    -0.5341314934
    6      O      -1.3948995869    -1.9817567041     0.8577776016
    7      C      -0.1361105101    -2.3700548515     1.5402460231
    8      C       0.5901409952    -1.0868951022     2.1156009704
    9      O       2.0139489869    -1.3286313372     2.4240669557
   10      C       2.9170230990    -1.3316755489     1.2955597072
   11      C       2.4102532545    -0.8284190162    -0.1099458968
   12      C       2.2228651083     0.7476105492    -0.2237638404
   13      C       2.5062223372     1.5134271594     1.1038513044
   14      O       3.5971187541     1.7309276518     1.6708662015
   15      O      -2.0806356772     2.4128846394    -0.4831313707
   16      O       1.2352331322     1.9572332931     1.6390837436
   17      O       4.0826020832    -1.7221687046     1.5233459748
   18      C       1.4237197090     2.6358935010     2.9407330333
   19      C       3.5256189468    -1.0678458407    -1.2092006224
   20      C       2.8324243670    -0.9491291627    -2.6245528701
   21      C       2.6505090361     0.6099327144    -2.7413846923
   22      C       3.2681318094     1.0919033045    -1.3677690801
   23      O       4.3755226494     0.1430099679    -1.1304914069
   24      H       1.4654983377    -1.3379045909    -0.4038864693
   25      H       1.1790625296     0.9676403536    -0.5129094531
   26      H       4.1379811385    -1.9754675595    -1.0451185442
   27      H       3.4903896419    -1.3402412399    -3.4167178564
   28      H       1.8724946272    -1.4902600250    -2.6521092927
   29      H       3.2229897955     1.0239042314    -3.5867491675
   30      H       1.5950407234     0.9073934444    -2.8483075448
   31      H       3.6407319340     2.1346951157    -1.3549536544
   32      O      -0.0937050463    -1.9775130836    -1.1360958325
   33      C      -0.9955485780     3.2364828237     0.1186684820
   34      C      -4.2251447625     0.2267850343    -0.3681496579
   35      C      -5.3795992761    -0.2876162520    -1.3140890378
   36      C      -5.0602015694    -1.8273888133    -1.3684450378
   37      C      -3.7944670128    -1.9136256189    -0.4272747747
   38      O      -4.0502052121    -0.8768315713     0.6010119863
   39      H      -3.0219428065     0.6044500189    -2.2164640167
   40      H      -2.5003457745    -1.7169877837    -2.2542872622
   41      H      -0.2419799336     2.6165576118     0.6644706742
   42      H      -4.4253244678     1.1831013882     0.1532211347
   43      H      -6.3630043333    -0.0943485009    -0.8566767713
   44      H      -5.3504456339     0.1912799141    -2.3058005693
   45      H      -5.8871795507    -2.4268458699    -0.9560876076
   46      H      -4.8424409763    -2.1813840209    -2.3888644365
   47      H      -3.6254635578    -2.8972907177     0.0507231718
   48      H      -1.4805394582     3.9543080810     0.8065956183
   49      H      -0.4918346007     3.7998492141    -0.6921455256
   50      H       0.8537885728     2.0888575795     3.7169122288
   51      H       1.0437397285     3.6737448965     2.8682749773
   52      H       2.5041358082     2.6411219764     3.1903237244
   53      H       0.4244607558    -0.2395527871     1.4170254515
   54      H       0.1309695635    -0.8189396496     3.0880650559
   55      H      -0.4271212118    -3.0571061581     2.3591071059
   56      H       0.5323636395    -2.9050734581     0.8329046083
 ----------------------------------------------------------------

    9   -1510.2949494410      7.67E-09 Convergence criterion met
 Total energy in the final basis set = -1510.29494944
 Final energy is   -1510.29494944097
 **  OPTIMIZATION CONVERGED  **

                    Orbital Energies (a.u.)
 --------------------------------------------------------------

 Alpha MOs
 -- Occupied --
-18.962 -18.940 -18.938 -18.917 -18.905 -18.899 -18.884 -18.879
-18.875 -18.861 -10.128 -10.112 -10.100 -10.084 -10.072 -10.069
-10.069 -10.062 -10.061 -10.058 -10.055 -10.051 -10.048 -10.043
-10.030 -10.028 -10.023 -10.011 -10.011 -10.005  -1.037  -1.017
 -1.013  -0.991  -0.981  -0.960  -0.958  -0.943  -0.940  -0.923
 -0.775  -0.752  -0.734  -0.722  -0.712  -0.696  -0.693  -0.673
 -0.661  -0.617  -0.594  -0.585  -0.557  -0.547  -0.541  -0.528
 -0.525  -0.501  -0.493  -0.477  -0.474  -0.462  -0.458  -0.447
 -0.443  -0.435  -0.424  -0.420  -0.416  -0.413  -0.410  -0.398
 -0.394  -0.390  -0.382  -0.376  -0.367  -0.360  -0.354  -0.350
 -0.348  -0.346  -0.338  -0.336  -0.326  -0.324  -0.320  -0.315
 -0.312  -0.304  -0.299  -0.298  -0.297  -0.292  -0.279  -0.277
 -0.269  -0.266  -0.253  -0.248  -0.244  -0.230  -0.221  -0.198
 -0.186  -0.180  -0.178  -0.162  -0.160  -0.155  -0.153  -0.133
 -0.132

          Ground-State Mulliken Net Atomic Charges

     Atom                 Charge (a.u.)
  ----------------------------------------
      1 O                    -0.213640
      2 C                     0.224615
      3 C                    -0.078316
      4 C                    -0.080234
      5 C                     0.221571
      6 O                    -0.168008
      7 C                    -0.054464
      8 C                    -0.063453
      9 O                    -0.176016
     10 C                     0.200819
     11 C                    -0.100747
     12 C                    -0.091275
     13 C                     0.208322
     14 O                    -0.200145
     15 O                    -0.163755
     16 O                    -0.176593
     17 O                    -0.199287
     18 C                    -0.138087
     19 C                     0.025576
     20 C                    -0.146662
     21 C                    -0.143285
     22 C                     0.025008
     23 O                    -0.187215
     24 H                     0.104984
     25 H                     0.097420
     26 H                     0.087288
     27 H                     0.073834
     28 H                     0.082390
     29 H                     0.074584
     30 H                     0.069210
     31 H                     0.079387
     32 O                    -0.227059
     33 C                    -0.148654
     34 C                     0.025665
     35 C                    -0.143277
     36 C                    -0.144523
     37 C                     0.026795
     38 O                    -0.185888
     39 H                     0.089317
     40 H                     0.085802
     41 H                     0.121999
     42 H                     0.088069
     43 H                     0.080239
     44 H                     0.074751
     45 H                     0.079965
     46 H                     0.074660
     47 H                     0.089056
     48 H                     0.086412
     49 H                     0.083108
     50 H                     0.086678
     51 H                     0.082368
     52 H                     0.106789
     53 H                     0.107601
     54 H                     0.084747
     55 H                     0.089504
     56 H                     0.092049
  ----------------------------------------
  Sum of atomic charges =    -0.000000

                    Cartesian Multipole Moments
 -----------------------------------------------------------------
    Charge (ESU x 10^10)
                -0.0000
    Dipole Moment (Debye)
         X      -6.5391      Y       1.8685      Z      -2.4178
       Tot       7.2178
    Quadrupole Moments (Debye-Ang)
        XX    -181.7389     XY       5.3634     YY    -150.8476
        XZ      -1.8026     YZ       4.8436     ZZ    -157.6165

 Total job time:  230.03s(wall), 10983.45s(cpu)
        *  Thank you very much for using Q-Chem.  Have a nice day.  *
