 Q-Chem 5.0, Q-Chem, Inc., Pleasanton, CA (2017)
 Q-Chem 5.0.1 for Intel X86 EM64T Linux

User input:
--------------------------------------------------------------
$molecule
0  1
O -1.9038982641 0.141845886 -2.0985887041
C -2.5995607455 -0.7196878258 -1.5179429961
C -4.0202670683 -0.5279238574 -0.8771333161
C -4.004826314 -0.4495200691 0.7146723635
C -2.5670260132 -0.2942524785 1.3383597537
O -1.8071391086 -1.4896548218 1.0868208752
C -0.9516154456 -1.840058231 2.2392865999
C 0.5595076322 -1.4584160958 1.9155122939
O 0.6241774615 -1.0957297114 0.4829515657
C 1.5457427726 0.0236681871 0.2644282078
C 2.888193374 -0.5029498475 -0.3554557386
C 3.8127485805 0.5545253477 -1.0809049447
C 3.6079560411 2.0612812864 -0.6785076331
O 3.6628365753 3.0402117975 -1.455582487
O -2.2674513295 -2.1059228285 -1.4211690635
O 3.5735984805 2.1722918343 0.7467538225
O 1.1926585176 1.2002646991 0.4665647084
C 3.4137846427 3.5905892964 1.137675158
C 3.91636873 -1.1875208101 0.6591351095
C 4.7102237945 -2.2707490839 -0.1711332662
C 5.5833847172 -1.3434365137 -1.0960349904
C 5.231612157 0.0902015284 -0.5262474197
O 4.9426449251 -0.1537447441 0.9068530789
H 2.5678852695 -1.2671776119 -1.0888344044
H 3.7409035152 0.479159187 -2.1796481941
H 3.4807518344 -1.5408473898 1.6130394551
H 5.3402788189 -2.8772871972 0.4994302235
H 4.0443781797 -2.9420687999 -0.7367942661
H 6.658803395 -1.5525086595 -0.9823700413
H 5.3170049022 -1.4371472797 -2.1611204964
H 6.0333410243 0.8461831395 -0.634685606
O -2.1701152318 0.633829991 2.0744299797
C -0.8468713899 -2.3199494588 -1.7918593987
C -4.6973034153 0.8583379547 -1.2412830966
C -6.2524353495 0.7057205936 -1.0226664801
C -6.3292863517 0.6642386113 0.5497699881
C -4.8147531409 0.8915441184 0.9406760159
O -4.2916153873 1.7612184787 -0.1393346687
H -4.6475822535 -1.3777039958 -1.2021885543
H -4.4820242568 -1.3381448611 1.1668021156
H -0.1879642846 -1.9324035582 -0.9766752029
H -4.3841115684 1.2760059306 -2.2177542394
H -6.7842340277 1.581552407 -1.427718471
H -6.6572611141 -0.2036145002 -1.4950182731
H -6.9576244841 1.4768513102 0.9471845295
H -6.7137735296 -0.2964781978 0.9287257661
H -4.6360515053 1.358849582 1.9283808554
H -0.5988803967 -1.8170849342 -2.7479590135
H -0.7208431095 -3.4125775608 -1.9005650309
H 3.5035757187 3.6148498814 2.2391155703
H 2.4183250544 3.9786247278 0.8392612121
H 4.1961534047 4.2314465291 0.6825346805
H 0.8732138254 -0.6087526078 2.5581944179
H 1.2281940271 -2.3248523428 2.1222186824
H -1.0493878364 -2.9377235971 2.3703130479
H -1.279377636 -1.321746997 3.1638028147
$end

$rem
JOBTYPE                   OPT
METHOD                    B3LYP
DFT_D                     d3_op
BASIS                     STO-3G
GEOM_OPT_MAX_CYCLES       100
GEOM_OPT_TOL_GRADIENT     300
GEOM_OPT_TOL_DISPLACEMENT 1200
GEOM_OPT_TOL_ENERGY       100
SYMMETRY                  False
THRESH                    12
SCF_CONVERGENCE           8
MAX_SUB_FILE_NUM          128
MEM_STATIC                400
MEM_TOTAL                 4000
$end
--------------------------------------------------------------

   16   -1510.2470264639      5.54E-09 Convergence criterion met
 Total energy in the final basis set = -1510.24702646
   15   -1510.2467920765      3.24E-09 Convergence criterion met
 Total energy in the final basis set = -1510.24679208
   15   -1510.2570029158      2.70E-09 Convergence criterion met
 Total energy in the final basis set = -1510.25700292
   13   -1510.2620041262      9.37E-09 Convergence criterion met
 Total energy in the final basis set = -1510.26200413
   15   -1510.2676143237      2.19E-09 Convergence criterion met
 Total energy in the final basis set = -1510.26761432
   15   -1510.2730851927      2.20E-09 Convergence criterion met
 Total energy in the final basis set = -1510.27308519
   15   -1510.2781674083      2.00E-09 Convergence criterion met
 Total energy in the final basis set = -1510.27816741
   15   -1510.2830107667      3.09E-09 Convergence criterion met
   11   -1510.2956349140      8.44E-09 Convergence criterion met
 Total energy in the final basis set = -1510.29563491
   12   -1510.2956356136      2.79E-09 Convergence criterion met
 Total energy in the final basis set = -1510.29563561
   12   -1510.2956242737      2.80E-09 Convergence criterion met
 Total energy in the final basis set = -1510.29562427
   11   -1510.2956179617      5.62E-09 Convergence criterion met
 Total energy in the final basis set = -1510.29561796
   11   -1510.2956142963      4.93E-09 Convergence criterion met
 Total energy in the final basis set = -1510.29561430
    9   -1510.2956131787      8.66E-09 Convergence criterion met
 Total energy in the final basis set = -1510.29561318

             Standard Nuclear Orientation (Angstroms)
    I     Atom           X                Y                Z
 ----------------------------------------------------------------
    1      O       0.8255469773    -0.4846525559     0.8665066533
    2      C       1.7795898048    -1.2856600484     0.7431053054
    3      C       3.3038608107    -0.9248062492     0.7525636463
    4      C       3.8335323212    -0.3419854043    -0.6288048210
    5      C       2.7905888778    -0.2691667377    -1.8020968109
    6      O       2.0303515505    -1.4834477105    -1.8222393202
    7      C       1.1052394857    -1.5276707272    -2.9788100887
    8      C      -0.1554048904    -0.6129019332    -2.8118830254
    9      O      -0.8667545062    -0.9851879722    -1.5656818910
   10      C      -1.4459623691     0.1835252340    -0.9554005372
   11      C      -2.0841093651    -0.2272408710     0.4089466278
   12      C      -3.0096590454     0.8921712936     1.0386399821
   13      C      -3.1613564492     2.1818121015     0.1530811922
   14      O      -2.6885455145     3.3132117232     0.3945223875
   15      O       1.6371851663    -2.6996814048     0.6046001944
   16      O      -4.0292429891     1.8852447141    -0.9502212785
   17      O      -1.3724169945     1.3258400685    -1.4565396561
   18      C      -4.1216611351     3.0605741205    -1.8428211680
   19      C      -3.1007855921    -1.4409021070     0.2892769269
   20      C      -3.3183399759    -2.0351351807     1.7369057226
   21      C      -4.2310924660    -0.9279999691     2.3820463335
   22      C      -4.3751713452     0.0901311417     1.1812533745
   23      O      -4.3916051549    -0.7845724461    -0.0138754291
   24      H      -1.2211551943    -0.4748367138     1.0602809893
   25      H      -2.6209706281     1.2132479917     2.0208571515
   26      H      -2.8425387920    -2.1779799250    -0.4953822496
   27      H      -3.8359176185    -3.0060904745     1.6823048494
   28      H      -2.3672646037    -2.1696994753     2.2763675280
   29      H      -5.2162297065    -1.3313446151     2.6656958411
   30      H      -3.7717048447    -0.4611632204     3.2680294121
   31      H      -5.2816993595     0.7246159943     1.2080514224
   32      O       2.6611250515     0.6538688572    -2.6339420492
   33      C       0.2096146327    -3.0382340725     0.3818009716
   34      C       3.5872162083     0.3091961984     1.7107456345
   35      C       5.1431385752     0.4038423522     1.9677812909
   36      C       5.6432992575     1.0053384990     0.6017247643
   37      C       4.2861077827     1.1147667084    -0.1944161085
   38      O       3.3003066161     1.4788942076     0.8490310983
   39      H       3.8740624251    -1.8248309055     1.0416038523
   40      H       4.6907176153    -0.9408834747    -0.9902676824
   41      H      -0.2372432820    -2.3714887476    -0.3929250883
   42      H       2.9528097245     0.3349842347     2.6175478043
   43      H       5.3537029780     1.0825174222     2.8093618594
   44      H       5.5881751685    -0.5798698908     2.1867492498
   45      H       6.0882893623     2.0036677108     0.7389039672
   46      H       6.3757294788     0.3592163029     0.0921087028
   47      H       4.2656325278     1.8492014838    -1.0234953685
   48      H      -0.3750583758    -2.9494766699     1.3200952934
   49      H       0.1948620114    -4.0911034183     0.0462136499
   50      H      -4.8541289053     2.7932792889    -2.6266929649
   51      H      -3.1409730556     3.2838298049    -2.3113580190
   52      H      -4.4680940210     3.9642332366    -1.3009820068
   53      H       0.1301790213     0.4596806287    -2.7705924875
   54      H      -0.8255591588    -0.7654278567    -3.6867418286
   55      H       0.7952133211    -2.5896148769    -3.0545029653
   56      H       1.6276284728    -1.2300683478    -3.9142991249
 ----------------------------------------------------------------

   10   -1510.2956133845      5.57E-09 Convergence criterion met
 Total energy in the final basis set = -1510.29561338
 Final energy is   -1510.29561338446
 **  OPTIMIZATION CONVERGED  **

                    Orbital Energies (a.u.)
 --------------------------------------------------------------

 Alpha MOs
 -- Occupied --
-18.945 -18.941 -18.930 -18.913 -18.887 -18.886 -18.885 -18.882
-18.869 -18.853 -10.108 -10.104 -10.099 -10.085 -10.082 -10.076
-10.059 -10.058 -10.055 -10.053 -10.048 -10.047 -10.042 -10.038
-10.027 -10.025 -10.021 -10.020 -10.017 -10.015  -1.024  -1.015
 -1.006  -0.991  -0.970  -0.965  -0.949  -0.940  -0.932  -0.916
 -0.765  -0.757  -0.731  -0.720  -0.713  -0.704  -0.696  -0.657
 -0.646  -0.620  -0.598  -0.581  -0.546  -0.541  -0.537  -0.533
 -0.514  -0.508  -0.485  -0.471  -0.461  -0.459  -0.454  -0.443
 -0.431  -0.430  -0.426  -0.418  -0.410  -0.405  -0.401  -0.398
 -0.396  -0.379  -0.373  -0.369  -0.360  -0.357  -0.350  -0.347
 -0.340  -0.334  -0.332  -0.330  -0.327  -0.324  -0.319  -0.314
 -0.310  -0.306  -0.301  -0.298  -0.294  -0.288  -0.276  -0.275
 -0.268  -0.262  -0.251  -0.245  -0.236  -0.234  -0.229  -0.190
 -0.182  -0.171  -0.164  -0.158  -0.157  -0.150  -0.143  -0.139
 -0.133

          Ground-State Mulliken Net Atomic Charges

     Atom                 Charge (a.u.)
  ----------------------------------------
      1 O                    -0.224176
      2 C                     0.215641
      3 C                    -0.079243
      4 C                    -0.077791
      5 C                     0.211687
      6 O                    -0.169767
      7 C                    -0.047483
      8 C                    -0.054531
      9 O                    -0.176707
     10 C                     0.225647
     11 C                    -0.085583
     12 C                    -0.081053
     13 C                     0.213121
     14 O                    -0.216775
     15 O                    -0.168102
     16 O                    -0.171828
     17 O                    -0.203580
     18 C                    -0.128120
     19 C                     0.023255
     20 C                    -0.143458
     21 C                    -0.144137
     22 C                     0.026468
     23 O                    -0.188058
     24 H                     0.108938
     25 H                     0.084358
     26 H                     0.083645
     27 H                     0.075868
     28 H                     0.071283
     29 H                     0.076430
     30 H                     0.073859
     31 H                     0.083931
     32 O                    -0.209653
     33 C                    -0.143071
     34 C                     0.025780
     35 C                    -0.144330
     36 C                    -0.143884
     37 C                     0.023933
     38 O                    -0.185803
     39 H                     0.085848
     40 H                     0.085497
     41 H                     0.107819
     42 H                     0.084688
     43 H                     0.078547
     44 H                     0.073066
     45 H                     0.079095
     46 H                     0.072744
     47 H                     0.091224
     48 H                     0.075344
     49 H                     0.082662
     50 H                     0.085783
     51 H                     0.091061
     52 H                     0.085984
     53 H                     0.109959
     54 H                     0.086957
     55 H                     0.093200
     56 H                     0.093812
  ----------------------------------------
  Sum of atomic charges =    -0.000000

                    Cartesian Multipole Moments
 -----------------------------------------------------------------
    Charge (ESU x 10^10)
                -0.0000
    Dipole Moment (Debye)
         X       1.9198      Y      -3.6257      Z      -0.0367
       Tot       4.1028
    Quadrupole Moments (Debye-Ang)
        XX    -149.0405     XY      -1.9172     YY    -165.9088
        XZ      -1.0945     YZ       0.4654     ZZ    -149.3916

 Total job time:  162.91s(wall), 7776.64s(cpu)
        *  Thank you very much for using Q-Chem.  Have a nice day.  *
