 Q-Chem 5.0, Q-Chem, Inc., Pleasanton, CA (2017)
 Q-Chem 5.0.1 for Intel X86 EM64T Linux

User input:
--------------------------------------------------------------
$molecule
0  1
O -3.94934 -3.66094 2.70899
C -3.26408 -4.56952 2.26188
C -3.36658 -6.02376 2.66595
C -2.27333 -6.57303 3.59705
C -1.29943 -5.56331 4.16282
O -0.53823 -5.03897 3.15731
C 0.8233 -4.81625 3.53926
C 1.0657 -3.32956 3.77826
O -0.07245 -2.57135 3.33936
C -0.39811 -1.50709 4.11422
C 0.00854 -0.18757 3.50253
C -0.71178 1.0413 4.07638
C -1.44434 0.82631 5.38552
O -2.51854 1.32607 5.68702
O -2.32907 -4.27603 1.32041
O -0.71094 0.28635 6.40255
O -1.25871 -1.68148 4.96056
C -1.15606 0.13757 7.69991
C 1.48022 0.19716 3.74944
C 1.93897 1.17566 2.66899
C 1.16448 2.41765 3.06493
C 0.5137 1.93173 4.36559
O 1.44645 1.01706 4.88978
H -0.17116 -0.27275 2.406
H -1.41894 1.51893 3.36256
H 2.16749 -0.67269 3.79626
H 3.02316 1.36411 2.84083
H 1.78941 0.83666 1.62131
H 1.89225 3.23407 3.26927
H 0.4035 2.75871 2.32997
H 0.25748 2.79378 5.02084
O -1.13449 -5.31868 5.35249
C -2.15801 -3.0278 0.75792
C -4.60975 -6.28815 3.55053
C -5.01061 -7.76027 3.46569
C -3.89431 -8.4008 4.25979
C -3.14028 -7.15266 4.73022
O -4.14204 -6.17809 4.87172
H -3.49161 -6.60888 1.72731
H -1.66198 -7.36 3.10177
H -1.9262 -2.2768 1.54097
H -5.48304 -5.65172 3.28714
H -5.96016 -7.8741 4.03669
H -5.15284 -8.15757 2.43773
H -4.34204 -8.93682 5.12615
H -3.23618 -9.08855 3.68582
H -2.55203 -7.38899 5.64406
H -3.08045 -2.7243 0.2185
H -1.31693 -3.06582 0.03583
H -0.35547 -0.33275 8.30669
H -2.05416 -0.51588 7.72294
H -1.40011 1.12919 8.13725
H 1.19941 -3.19666 4.87804
H 2.00365 -2.99731 3.28432
H 1.42093 -5.11422 2.65154
H 1.20553 -5.45027 4.37344
$end

$opt
CONSTRAINT
tors           1           2           3           4    -104.211
tors           3           4           5           6     -66.316
tors           4           5           6           7    -142.105
tors           5           6           7           8    -104.211
tors           6           7           8           9      -9.474
tors           7           8           9          10    +142.105
tors           8           9          10          11    +104.211
tors           9          10          11          12    +161.053
tors          11          12          13          14    -142.105
ENDCONSTRAINT
$end

$rem
JOBTYPE                   OPT
METHOD                    B3LYP
DFT_D                     d3_op
BASIS                     STO-3G
GEOM_OPT_MAX_CYCLES       100
GEOM_OPT_TOL_GRADIENT     300
GEOM_OPT_TOL_DISPLACEMENT 1200
GEOM_OPT_TOL_ENERGY       100
SYMMETRY                  False
THRESH                    12
SCF_CONVERGENCE           8
MAX_SUB_FILE_NUM          128
MEM_STATIC                400
MEM_TOTAL                 4000
$end
--------------------------------------------------------------

   15   -1510.1124510661      8.49E-09 Convergence criterion met
 Total energy in the final basis set = -1510.11245107
   14   -1510.1836415849      6.35E-09 Convergence criterion met
 Total energy in the final basis set = -1510.18364158
   14   -1510.2210620138      6.98E-09 Convergence criterion met
 Total energy in the final basis set = -1510.22106201
   14   -1510.2368209566      5.66E-09 Convergence criterion met
 Total energy in the final basis set = -1510.23682096
   14   -1510.2421311587      4.28E-09 Convergence criterion met
 Total energy in the final basis set = -1510.24213116
   13   -1510.2439447221      6.61E-09 Convergence criterion met
 Total energy in the final basis set = -1510.24394472
   13   -1510.2449933464      8.04E-09 Convergence criterion met
 Total energy in the final basis set = -1510.24499335
   13   -1510.2461976413      9.99E-09 Convergence criterion met
   11   -1510.2470215083      2.52E-09 Convergence criterion met
 Total energy in the final basis set = -1510.24702151
   11   -1510.2470266569      2.24E-09 Convergence criterion met
 Total energy in the final basis set = -1510.24702666
    9   -1510.2470297656      7.02E-09 Convergence criterion met
 Total energy in the final basis set = -1510.24702977
    9   -1510.2470315299      5.81E-09 Convergence criterion met
 Total energy in the final basis set = -1510.24703153
    9   -1510.2470325870      7.70E-09 Convergence criterion met
 Total energy in the final basis set = -1510.24703259
    9   -1510.2470338847      7.51E-09 Convergence criterion met
 Total energy in the final basis set = -1510.24703388

             Standard Nuclear Orientation (Angstroms)
    I     Atom           X                Y                Z
 ----------------------------------------------------------------
    1      O      -1.9038982641     0.1418458860    -2.0985887041
    2      C      -2.5995607455    -0.7196878258    -1.5179429961
    3      C      -4.0202670683    -0.5279238574    -0.8771333161
    4      C      -4.0048263140    -0.4495200691     0.7146723635
    5      C      -2.5670260132    -0.2942524785     1.3383597537
    6      O      -1.8071391086    -1.4896548218     1.0868208752
    7      C      -0.9516154456    -1.8400582310     2.2392865999
    8      C       0.5595076322    -1.4584160958     1.9155122939
    9      O       0.6241774615    -1.0957297114     0.4829515657
   10      C       1.5457427726     0.0236681871     0.2644282078
   11      C       2.8881933740    -0.5029498475    -0.3554557386
   12      C       3.8127485805     0.5545253477    -1.0809049447
   13      C       3.6079560411     2.0612812864    -0.6785076331
   14      O       3.6628365753     3.0402117975    -1.4555824870
   15      O      -2.2674513295    -2.1059228285    -1.4211690635
   16      O       3.5735984805     2.1722918343     0.7467538225
   17      O       1.1926585176     1.2002646991     0.4665647084
   18      C       3.4137846427     3.5905892964     1.1376751580
   19      C       3.9163687300    -1.1875208101     0.6591351095
   20      C       4.7102237945    -2.2707490839    -0.1711332662
   21      C       5.5833847172    -1.3434365137    -1.0960349904
   22      C       5.2316121570     0.0902015284    -0.5262474197
   23      O       4.9426449251    -0.1537447441     0.9068530789
   24      H       2.5678852695    -1.2671776119    -1.0888344044
   25      H       3.7409035152     0.4791591870    -2.1796481941
   26      H       3.4807518344    -1.5408473898     1.6130394551
   27      H       5.3402788189    -2.8772871972     0.4994302235
   28      H       4.0443781797    -2.9420687999    -0.7367942661
   29      H       6.6588033950    -1.5525086595    -0.9823700413
   30      H       5.3170049022    -1.4371472797    -2.1611204964
   31      H       6.0333410243     0.8461831395    -0.6346856060
   32      O      -2.1701152318     0.6338299910     2.0744299797
   33      C      -0.8468713899    -2.3199494588    -1.7918593987
   34      C      -4.6973034153     0.8583379547    -1.2412830966
   35      C      -6.2524353495     0.7057205936    -1.0226664801
   36      C      -6.3292863517     0.6642386113     0.5497699881
   37      C      -4.8147531409     0.8915441184     0.9406760159
   38      O      -4.2916153873     1.7612184787    -0.1393346687
   39      H      -4.6475822535    -1.3777039958    -1.2021885543
   40      H      -4.4820242568    -1.3381448611     1.1668021156
   41      H      -0.1879642846    -1.9324035582    -0.9766752029
   42      H      -4.3841115684     1.2760059306    -2.2177542394
   43      H      -6.7842340277     1.5815524070    -1.4277184710
   44      H      -6.6572611141    -0.2036145002    -1.4950182731
   45      H      -6.9576244841     1.4768513102     0.9471845295
   46      H      -6.7137735296    -0.2964781978     0.9287257661
   47      H      -4.6360515053     1.3588495820     1.9283808554
   48      H      -0.5988803967    -1.8170849342    -2.7479590135
   49      H      -0.7208431095    -3.4125775608    -1.9005650309
   50      H       3.5035757187     3.6148498814     2.2391155703
   51      H       2.4183250544     3.9786247278     0.8392612121
   52      H       4.1961534047     4.2314465291     0.6825346805
   53      H       0.8732138254    -0.6087526078     2.5581944179
   54      H       1.2281940271    -2.3248523428     2.1222186824
   55      H      -1.0493878364    -2.9377235971     2.3703130479
   56      H      -1.2793776360    -1.3217469970     3.1638028147
 ----------------------------------------------------------------

    9   -1510.2470345093      2.94E-09 Convergence criterion met
 Total energy in the final basis set = -1510.24703451
 Final energy is   -1510.24703450929
 **  OPTIMIZATION CONVERGED  **

                    Orbital Energies (a.u.)
 --------------------------------------------------------------

 Alpha MOs
 -- Occupied --
-18.925 -18.924 -18.917 -18.915 -18.910 -18.895 -18.882 -18.880
-18.864 -18.861 -10.115 -10.099 -10.091 -10.086 -10.078 -10.076
-10.069 -10.064 -10.053 -10.053 -10.052 -10.042 -10.038 -10.036
-10.035 -10.029 -10.026 -10.025 -10.016 -10.015  -1.016  -1.008
 -1.000  -0.994  -0.976  -0.963  -0.947  -0.932  -0.925  -0.920
 -0.767  -0.757  -0.727  -0.721  -0.712  -0.704  -0.697  -0.653
 -0.645  -0.614  -0.599  -0.582  -0.550  -0.543  -0.539  -0.532
 -0.519  -0.503  -0.486  -0.475  -0.457  -0.451  -0.449  -0.440
 -0.439  -0.436  -0.424  -0.412  -0.408  -0.403  -0.403  -0.399
 -0.390  -0.381  -0.373  -0.365  -0.359  -0.355  -0.348  -0.343
 -0.341  -0.337  -0.336  -0.333  -0.329  -0.326  -0.324  -0.317
 -0.312  -0.305  -0.303  -0.300  -0.290  -0.286  -0.277  -0.275
 -0.268  -0.255  -0.243  -0.239  -0.237  -0.235  -0.227  -0.174
 -0.171  -0.166  -0.160  -0.157  -0.151  -0.148  -0.143  -0.139
 -0.137

          Ground-State Mulliken Net Atomic Charges

     Atom                 Charge (a.u.)
  ----------------------------------------
      1 O                    -0.214359
      2 C                     0.207983
      3 C                    -0.078946
      4 C                    -0.075773
      5 C                     0.213756
      6 O                    -0.172446
      7 C                    -0.046172
      8 C                    -0.046145
      9 O                    -0.196793
     10 C                     0.227378
     11 C                    -0.082517
     12 C                    -0.079431
     13 C                     0.211114
     14 O                    -0.215563
     15 O                    -0.169772
     16 O                    -0.164024
     17 O                    -0.163048
     18 C                    -0.126773
     19 C                     0.026214
     20 C                    -0.141750
     21 C                    -0.144996
     22 C                     0.025967
     23 O                    -0.183443
     24 H                     0.086726
     25 H                     0.086969
     26 H                     0.080417
     27 H                     0.078238
     28 H                     0.074463
     29 H                     0.079205
     30 H                     0.075560
     31 H                     0.084665
     32 O                    -0.200559
     33 C                    -0.144976
     34 C                     0.023928
     35 C                    -0.143090
     36 C                    -0.145059
     37 C                     0.023837
     38 O                    -0.187240
     39 H                     0.083107
     40 H                     0.084213
     41 H                     0.107471
     42 H                     0.088308
     43 H                     0.077354
     44 H                     0.072195
     45 H                     0.077541
     46 H                     0.071549
     47 H                     0.087780
     48 H                     0.081321
     49 H                     0.077539
     50 H                     0.089038
     51 H                     0.092591
     52 H                     0.087935
     53 H                     0.087458
     54 H                     0.074728
     55 H                     0.085974
     56 H                     0.090352
  ----------------------------------------
  Sum of atomic charges =    -0.000000

                    Cartesian Multipole Moments
 -----------------------------------------------------------------
    Charge (ESU x 10^10)
                -0.0000
    Dipole Moment (Debye)
         X       0.2213      Y      -4.5050      Z       1.5037
       Tot       4.7545
    Quadrupole Moments (Debye-Ang)
        XX    -142.2036     XY      -2.1453     YY    -161.5217
        XZ      -3.2359     YZ       1.3537     ZZ    -156.3411

 Total job time:  64.01s(wall), 3047.11s(cpu)
        *  Thank you very much for using Q-Chem.  Have a nice day.  *
