 Q-Chem 5.0, Q-Chem, Inc., Pleasanton, CA (2017)
 Q-Chem 5.0.1 for Intel X86 EM64T Linux

User input:
--------------------------------------------------------------
$molecule
0  1
O -4.8937616398 1.0873465799 -0.1310907677
C -4.0401939158 0.4130982019 -0.7446794842
C -3.3427506611 -0.9124363288 -0.2731900592
C -2.0626191836 -0.7138576773 0.6395227298
C -1.693624568 0.7754055709 0.9971787774
O -2.1153652693 1.7358358799 -0.0150091652
C -1.0287462023 2.2489149693 -0.8671105563
C 0.287030187 2.7336736527 -0.1201723169
O 1.507784336 2.0308988692 -0.5884465922
C 1.5240429532 0.639582178 -0.2711570015
C 2.5698795483 -0.0677401677 -1.2043743051
C 4.0653224101 -0.0183188539 -0.658231041
C 4.1779535232 0.6493350148 0.7587380489
O 4.3503114876 0.0786376042 1.856684516
O -3.6320647072 0.6667931866 -2.1019115949
O 4.0296877452 2.0640811942 0.5995010292
O 0.7751729587 0.080947157 0.5591405803
C 4.0225826843 2.7264019111 1.9241164109
C 2.3269699802 -1.6339978086 -1.2677470743
C 3.0916975257 -2.1953922107 -2.5298611635
C 4.5832733371 -2.1324235253 -2.0311090496
C 4.3952641418 -1.5658575436 -0.5687522357
O 3.1100862514 -2.1556715445 -0.125665529
H 2.5074359068 0.4024862363 -2.2018296865
H 4.7236304482 0.51961266 -1.363755338
H 1.265331754 -1.9352082027 -1.176407324
H 2.7793402263 -3.2309646812 -2.7387834447
H 2.9154730714 -1.5844761843 -3.4296934095
H 5.0413365113 -3.1336571648 -1.9992624238
H 5.212193005 -1.4750633978 -2.6526101302
H 5.1990256 -1.8153673782 0.1505437797
O -1.2333433127 1.1627255544 2.0914081854
C -4.2709178843 1.9091847551 -2.5868740426
C -4.270256426 -1.7491992745 0.7106238034
C -3.7307914564 -3.2331789787 0.7562044149
C -2.4322092429 -3.056853844 1.6285211537
C -2.4823338147 -1.5108762006 1.9409724626
O -3.9312326167 -1.2190830425 2.0509039371
H -3.0825050172 -1.4919980889 -1.1765137975
H -1.1616304506 -1.149642739 0.1674459293
H -4.0231608786 2.7744581006 -1.9388285792
H -5.3550667958 -1.6413183596 0.5169567805
H -4.4622535457 -3.8918873506 1.2508047981
H -3.5201060347 -3.6318466873 -0.2490843549
H -2.4898011449 -3.640726053 2.5607850038
H -1.5135712646 -3.3412960415 1.0909917106
H -1.944998851 -1.1833541505 2.8522934048
H -5.3753646047 1.812617449 -2.6315588703
H -3.876312281 2.082318181 -3.6051629056
H 3.8883344763 3.8052746772 1.7239650867
H 4.975172584 2.5652218226 2.4692305337
H 3.1885853604 2.3595093265 2.5568353586
H 0.4803744338 3.802510513 -0.3335313301
H 0.1411088848 2.5991508243 0.976720819
H -1.4821758503 3.1008407103 -1.4138133075
H -0.7375686647 1.4827075114 -1.6254067948
$end

$rem
JOBTYPE                   OPT
METHOD                    B3LYP
DFT_D                     d3_op
BASIS                     STO-3G
GEOM_OPT_MAX_CYCLES       100
GEOM_OPT_TOL_GRADIENT     300
GEOM_OPT_TOL_DISPLACEMENT 1200
GEOM_OPT_TOL_ENERGY       100
SYMMETRY                  False
THRESH                    12
SCF_CONVERGENCE           8
MAX_SUB_FILE_NUM          128
MEM_STATIC                400
MEM_TOTAL                 4000
$end
--------------------------------------------------------------

   16   -1510.2610953664      5.37E-09 Convergence criterion met
 Total energy in the final basis set = -1510.26109537
   15   -1510.2632426704      1.84E-09 Convergence criterion met
 Total energy in the final basis set = -1510.26324267
   15   -1510.2654455168      4.01E-09 Convergence criterion met
 Total energy in the final basis set = -1510.26544552
   15   -1510.2669510992      2.58E-09 Convergence criterion met
 Total energy in the final basis set = -1510.26695110
   15   -1510.2687822404      1.76E-09 Convergence criterion met
 Total energy in the final basis set = -1510.26878224
   15   -1510.2627480716      2.75E-09 Convergence criterion met
 Total energy in the final basis set = -1510.26274807
   14   -1510.2683238728      6.82E-09 Convergence criterion met
 Total energy in the final basis set = -1510.26832387
   14   -1510.2691144191      8.76E-09 Convergence criterion met
   11   -1510.3083299724      7.73E-09 Convergence criterion met
 Total energy in the final basis set = -1510.30832997
   11   -1510.3083613620      7.92E-09 Convergence criterion met
 Total energy in the final basis set = -1510.30836136
   11   -1510.3083779376      7.39E-09 Convergence criterion met
 Total energy in the final basis set = -1510.30837794
   12   -1510.3083765411      2.87E-09 Convergence criterion met
 Total energy in the final basis set = -1510.30837654
   11   -1510.3083855877      8.07E-09 Convergence criterion met
 Total energy in the final basis set = -1510.30838559
   10   -1510.3083876051      8.64E-09 Convergence criterion met
 Total energy in the final basis set = -1510.30838761

             Standard Nuclear Orientation (Angstroms)
    I     Atom           X                Y                Z
 ----------------------------------------------------------------
    1      O      -3.5555303701     0.5956563496    -1.4943389956
    2      C      -2.4661661520    -0.0115458712    -1.4354726769
    3      C      -1.8676930019    -0.8227759751    -0.2371269168
    4      C      -1.3664125424     0.0696876942     0.9737808503
    5      C      -1.3882109648     1.6085402363     0.7278429415
    6      O      -1.0682691249     1.8310549967    -0.6617109419
    7      C      -0.8794490013     3.2652727760    -0.9573183458
    8      C       0.6673333622     3.5754447090    -0.9464905531
    9      O       1.4023505175     2.4318925155    -1.5462357386
   10      C       1.6517661003     1.4452743792    -0.5426964644
   11      C       2.2649861276     0.1705978426    -1.2031038034
   12      C       2.8137896068    -0.8632061037    -0.1346452322
   13      C       2.3366770417    -0.5522292033     1.3351589903
   14      O       1.2717975020    -0.9311164183     1.8798467356
   15      O      -1.5879055804    -0.1489677008    -2.5795487414
   16      O       3.3972714904     0.1112761525     2.0265077801
   17      O       1.4559113460     1.6205670370     0.6840954039
   18      C       2.9484338930     0.4806536943     3.3887318502
   19      C       1.2166643608    -0.7360094603    -2.0004376145
   20      C       2.0478984993    -1.6129150810    -3.0142308126
   21      C       2.7657221101    -2.6140220073    -2.0309901721
   22      C       2.1327769050    -2.1988193255    -0.6431050694
   23      O       0.7762951127    -1.7375231326    -1.0061681599
   24      H       3.0692481249     0.5017596495    -1.8846457776
   25      H       3.9168751163    -0.9086083538    -0.1461351182
   26      H       0.3074446979    -0.2240132892    -2.3958744625
   27      H       1.3689419139    -2.1442656913    -3.7002736796
   28      H       2.7571991711    -1.0157150021    -3.6088023302
   29      H       2.5233166274    -3.6618268182    -2.2689530814
   30      H       3.8613574770    -2.4968110275    -2.0334796553
   31      H       2.0786230779    -3.0024396494     0.1166843685
   32      O      -1.5959710249     2.5306529168     1.5425589441
   33      C      -2.1299729769     0.6053390443    -3.7294458441
   34      C      -2.9966044355    -1.6707744816     0.4864504260
   35      C      -2.2979285004    -2.7184139567     1.4416457286
   36      C      -1.8484221480    -1.7965181957     2.6356347422
   37      C      -2.3478533127    -0.3871065117     2.1287804920
   38      O      -3.6116965708    -0.6992005289     1.4203009023
   39      H      -1.0193961335    -1.4379484340    -0.6017643306
   40      H      -0.3181768421    -0.2179867343     1.2288973381
   41      H      -2.1303263768     1.6978272216    -3.5372650599
   42      H      -3.7639999493    -2.0906408139    -0.1923945312
   43      H      -3.0194467099    -3.4842348489     1.7690327383
   44      H      -1.4473204821    -3.2185239536     0.9511321885
   45      H      -2.3536234894    -2.0741587335     3.5742797903
   46      H      -0.7573344528    -1.8078323199     2.7905146991
   47      H      -2.5155166991     0.3783253452     2.9112710684
   48      H      -3.1661552124     0.2933834549    -3.9714869126
   49      H      -1.4656569649     0.3839311678    -4.5851562523
   50      H       3.8142456175     0.9647093224     3.8765805106
   51      H       2.6396723439    -0.4102149472     3.9727599047
   52      H       2.0971838501     1.1904921978     3.3461525189
   53      H       0.8966061842     4.4637709567    -1.5676976621
   54      H       1.0119199192     3.7352298351     0.0967706641
   55      H      -1.4008073822     3.8868315709    -0.1977969327
   56      H      -1.3067632401     3.4457901882    -1.9637804819
 ----------------------------------------------------------------

    9   -1510.3083883380      4.53E-09 Convergence criterion met
 Total energy in the final basis set = -1510.30838834
 Final energy is   -1510.30838833802
 **  OPTIMIZATION CONVERGED  **

                    Orbital Energies (a.u.)
 --------------------------------------------------------------

 Alpha MOs
 -- Occupied --
-18.947 -18.934 -18.929 -18.922 -18.896 -18.888 -18.875 -18.870
-18.866 -18.858 -10.112 -10.103 -10.095 -10.085 -10.078 -10.074
-10.066 -10.061 -10.058 -10.053 -10.043 -10.041 -10.040 -10.038
-10.024 -10.021 -10.009 -10.007 -10.001  -9.997  -1.028  -1.010
 -1.006  -0.995  -0.977  -0.950  -0.949  -0.934  -0.933  -0.922
 -0.767  -0.745  -0.727  -0.718  -0.705  -0.697  -0.685  -0.662
 -0.654  -0.620  -0.593  -0.574  -0.548  -0.542  -0.529  -0.520
 -0.514  -0.496  -0.488  -0.470  -0.466  -0.457  -0.446  -0.443
 -0.432  -0.426  -0.418  -0.412  -0.411  -0.407  -0.405  -0.400
 -0.391  -0.382  -0.376  -0.364  -0.357  -0.356  -0.351  -0.344
 -0.339  -0.338  -0.336  -0.332  -0.327  -0.316  -0.312  -0.309
 -0.308  -0.306  -0.296  -0.290  -0.285  -0.281  -0.276  -0.268
 -0.260  -0.259  -0.251  -0.240  -0.239  -0.233  -0.213  -0.193
 -0.175  -0.170  -0.167  -0.163  -0.154  -0.152  -0.150  -0.136
 -0.124

          Ground-State Mulliken Net Atomic Charges

     Atom                 Charge (a.u.)
  ----------------------------------------
      1 O                    -0.218703
      2 C                     0.214704
      3 C                    -0.094763
      4 C                    -0.092572
      5 C                     0.217062
      6 O                    -0.179430
      7 C                    -0.052683
      8 C                    -0.053610
      9 O                    -0.167062
     10 C                     0.218593
     11 C                    -0.080956
     12 C                    -0.080957
     13 C                     0.223201
     14 O                    -0.226001
     15 O                    -0.175666
     16 O                    -0.169223
     17 O                    -0.215338
     18 C                    -0.128160
     19 C                     0.015074
     20 C                    -0.143218
     21 C                    -0.144809
     22 C                     0.027805
     23 O                    -0.192298
     24 H                     0.087223
     25 H                     0.086227
     26 H                     0.113419
     27 H                     0.078751
     28 H                     0.073001
     29 H                     0.078369
     30 H                     0.073566
     31 H                     0.085276
     32 O                    -0.211271
     33 C                    -0.127977
     34 C                     0.024556
     35 C                    -0.143639
     36 C                    -0.146334
     37 C                     0.023356
     38 O                    -0.192507
     39 H                     0.110304
     40 H                     0.112602
     41 H                     0.082702
     42 H                     0.078023
     43 H                     0.072066
     44 H                     0.074419
     45 H                     0.071101
     46 H                     0.085111
     47 H                     0.083729
     48 H                     0.089705
     49 H                     0.085379
     50 H                     0.089042
     51 H                     0.088580
     52 H                     0.095697
     53 H                     0.090903
     54 H                     0.098697
     55 H                     0.102690
     56 H                     0.086247
  ----------------------------------------
  Sum of atomic charges =    -0.000000

                    Cartesian Multipole Moments
 -----------------------------------------------------------------
    Charge (ESU x 10^10)
                -0.0000
    Dipole Moment (Debye)
         X       4.4673      Y      -0.0398      Z      -2.3824
       Tot       5.0630
    Quadrupole Moments (Debye-Ang)
        XX    -167.8913     XY       0.8454     YY    -150.2583
        XZ       3.7309     YZ      -3.8036     ZZ    -151.1187

 Total job time:  220.83s(wall), 10534.61s(cpu)
        *  Thank you very much for using Q-Chem.  Have a nice day.  *
