 Q-Chem 5.0, Q-Chem, Inc., Pleasanton, CA (2017)
 Q-Chem 5.0.1 for Intel X86 EM64T Linux

User input:
--------------------------------------------------------------
$molecule
0  1
O -3.94934 -3.66094 2.70899
C -3.26408 -4.56952 2.26188
C -3.36658 -6.02376 2.66595
C -2.57813 -6.46456 3.91009
C -1.91791 -5.36653 4.71416
O -1.61172 -4.31441 3.89886
C -0.21843 -4.23624 3.57965
C 0.61998 -4.38899 4.84451
O 1.53334 -5.48751 4.69656
C 0.96113 -6.71397 4.60976
C 1.88169 -7.75181 4.01301
C 2.83084 -8.4272 5.01363
C 2.4885 -8.24099 6.47815
O 1.98115 -9.08674 7.20056
O -2.46893 -4.31272 1.18857
O 2.73413 -7.00638 6.99012
O 0.06278 -7.05244 5.36611
C 2.45302 -6.63173 8.28693
C 1.14257 -8.97332 3.43342
C 2.01449 -9.64158 2.37253
C 3.1077 -10.23222 3.2394
C 2.56035 -9.90088 4.6339
O 1.16296 -9.9223 4.4691
H 2.43503 -7.25296 3.18447
H 3.90084 -8.1561 4.87859
H 0.14349 -8.72546 3.01319
H 1.41326 -10.47378 1.94054
H 2.36638 -8.98177 1.55053
H 3.13235 -11.33162 3.07021
H 4.12019 -9.79854 3.08983
H 2.97322 -10.61131 5.38398
O -2.18368 -5.17542 5.89335
C -2.30007 -3.06484 0.62612
C -4.79792 -6.41537 3.07911
C -4.9961 -7.92135 2.91663
C -4.15964 -8.44018 4.06611
C -3.72433 -7.12009 4.71216
O -4.80777 -6.25447 4.4762
H -3.06954 -6.62319 1.77495
H -1.78845 -7.20284 3.65918
H -1.87683 -2.36196 1.37516
H -5.5822 -5.86379 2.51534
H -6.0669 -8.1393 3.13137
H -4.7325 -8.32607 1.91583
H -4.82502 -9.00567 4.75602
H -3.29042 -9.0699 3.77692
H -3.45969 -7.29798 5.77741
H -3.27259 -2.677 0.25474
H -1.59657 -3.14314 -0.22787
H 2.75403 -5.57412 8.43285
H 3.01937 -7.26759 9.00054
H 1.36331 -6.72346 8.48322
H 1.24792 -3.47586 4.9219
H 0.09237 -4.41154 5.81843
H -0.02898 -3.25266 3.09895
H 0.03646 -5.00934 2.82131
$end

$opt
CONSTRAINT
tors           1           2           3           4     -85.263
tors           3           4           5           6     -28.421
tors           4           5           6           7    -104.211
tors           5           6           7           8     -47.368
tors           6           7           8           9    +123.158
tors           7           8           9          10     -66.316
tors           8           9          10          11    +161.053
tors           9          10          11          12     +85.263
tors          11          12          13          14    +104.211
ENDCONSTRAINT
$end

$rem
JOBTYPE                   OPT
METHOD                    B3LYP
DFT_D                     d3_op
BASIS                     STO-3G
GEOM_OPT_MAX_CYCLES       100
GEOM_OPT_TOL_GRADIENT     300
GEOM_OPT_TOL_DISPLACEMENT 1200
GEOM_OPT_TOL_ENERGY       100
SYMMETRY                  False
THRESH                    12
SCF_CONVERGENCE           8
MAX_SUB_FILE_NUM          128
MEM_STATIC                400
MEM_TOTAL                 4000
$end
--------------------------------------------------------------

   15   -1510.1049309611      7.04E-09 Convergence criterion met
 Total energy in the final basis set = -1510.10493096
   14   -1510.1802045156      7.63E-09 Convergence criterion met
 Total energy in the final basis set = -1510.18020452
   15   -1510.2210577211      2.11E-09 Convergence criterion met
 Total energy in the final basis set = -1510.22105772
   14   -1510.2426572058      9.85E-09 Convergence criterion met
 Total energy in the final basis set = -1510.24265721
   14   -1510.2524693903      6.51E-09 Convergence criterion met
 Total energy in the final basis set = -1510.25246939
   14   -1510.2570117196      3.13E-09 Convergence criterion met
 Total energy in the final basis set = -1510.25701172
   14   -1510.2592935453      2.49E-09 Convergence criterion met
 Total energy in the final basis set = -1510.25929355
   13   -1510.2604236577      8.66E-09 Convergence criterion met
    9   -1510.2611055924      8.45E-09 Convergence criterion met
 Total energy in the final basis set = -1510.26110559
   10   -1510.2611129677      8.40E-09 Convergence criterion met
 Total energy in the final basis set = -1510.26111297
   11   -1510.2611156419      2.87E-09 Convergence criterion met
 Total energy in the final basis set = -1510.26111564
   11   -1510.2611217297      2.19E-09 Convergence criterion met
 Total energy in the final basis set = -1510.26112173
   10   -1510.2611242877      7.75E-09 Convergence criterion met
 Total energy in the final basis set = -1510.26112429
    9   -1510.2611254439      3.08E-09 Convergence criterion met
 Total energy in the final basis set = -1510.26112544

             Standard Nuclear Orientation (Angstroms)
    I     Atom           X                Y                Z
 ----------------------------------------------------------------
    1      O      -4.8937616398     1.0873465799    -0.1310907677
    2      C      -4.0401939158     0.4130982019    -0.7446794842
    3      C      -3.3427506611    -0.9124363288    -0.2731900592
    4      C      -2.0626191836    -0.7138576773     0.6395227298
    5      C      -1.6936245680     0.7754055709     0.9971787774
    6      O      -2.1153652693     1.7358358799    -0.0150091652
    7      C      -1.0287462023     2.2489149693    -0.8671105563
    8      C       0.2870301870     2.7336736527    -0.1201723169
    9      O       1.5077843360     2.0308988692    -0.5884465922
   10      C       1.5240429532     0.6395821780    -0.2711570015
   11      C       2.5698795483    -0.0677401677    -1.2043743051
   12      C       4.0653224101    -0.0183188539    -0.6582310410
   13      C       4.1779535232     0.6493350148     0.7587380489
   14      O       4.3503114876     0.0786376042     1.8566845160
   15      O      -3.6320647072     0.6667931866    -2.1019115949
   16      O       4.0296877452     2.0640811942     0.5995010292
   17      O       0.7751729587     0.0809471570     0.5591405803
   18      C       4.0225826843     2.7264019111     1.9241164109
   19      C       2.3269699802    -1.6339978086    -1.2677470743
   20      C       3.0916975257    -2.1953922107    -2.5298611635
   21      C       4.5832733371    -2.1324235253    -2.0311090496
   22      C       4.3952641418    -1.5658575436    -0.5687522357
   23      O       3.1100862514    -2.1556715445    -0.1256655290
   24      H       2.5074359068     0.4024862363    -2.2018296865
   25      H       4.7236304482     0.5196126600    -1.3637553380
   26      H       1.2653317540    -1.9352082027    -1.1764073240
   27      H       2.7793402263    -3.2309646812    -2.7387834447
   28      H       2.9154730714    -1.5844761843    -3.4296934095
   29      H       5.0413365113    -3.1336571648    -1.9992624238
   30      H       5.2121930050    -1.4750633978    -2.6526101302
   31      H       5.1990256000    -1.8153673782     0.1505437797
   32      O      -1.2333433127     1.1627255544     2.0914081854
   33      C      -4.2709178843     1.9091847551    -2.5868740426
   34      C      -4.2702564260    -1.7491992745     0.7106238034
   35      C      -3.7307914564    -3.2331789787     0.7562044149
   36      C      -2.4322092429    -3.0568538440     1.6285211537
   37      C      -2.4823338147    -1.5108762006     1.9409724626
   38      O      -3.9312326167    -1.2190830425     2.0509039371
   39      H      -3.0825050172    -1.4919980889    -1.1765137975
   40      H      -1.1616304506    -1.1496427390     0.1674459293
   41      H      -4.0231608786     2.7744581006    -1.9388285792
   42      H      -5.3550667958    -1.6413183596     0.5169567805
   43      H      -4.4622535457    -3.8918873506     1.2508047981
   44      H      -3.5201060347    -3.6318466873    -0.2490843549
   45      H      -2.4898011449    -3.6407260530     2.5607850038
   46      H      -1.5135712646    -3.3412960415     1.0909917106
   47      H      -1.9449988510    -1.1833541505     2.8522934048
   48      H      -5.3753646047     1.8126174490    -2.6315588703
   49      H      -3.8763122810     2.0823181810    -3.6051629056
   50      H       3.8883344763     3.8052746772     1.7239650867
   51      H       4.9751725840     2.5652218226     2.4692305337
   52      H       3.1885853604     2.3595093265     2.5568353586
   53      H       0.4803744338     3.8025105130    -0.3335313301
   54      H       0.1411088848     2.5991508243     0.9767208190
   55      H      -1.4821758503     3.1008407103    -1.4138133075
   56      H      -0.7375686647     1.4827075114    -1.6254067948
 ----------------------------------------------------------------

    8   -1510.2611255899      7.80E-09 Convergence criterion met
 Total energy in the final basis set = -1510.26112559
 Final energy is   -1510.26112558988
 **  OPTIMIZATION CONVERGED  **

                    Orbital Energies (a.u.)
 --------------------------------------------------------------

 Alpha MOs
 -- Occupied --
-18.941 -18.936 -18.919 -18.911 -18.900 -18.891 -18.888 -18.880
-18.878 -18.859 -10.111 -10.109 -10.100 -10.090 -10.081 -10.077
-10.065 -10.065 -10.062 -10.057 -10.053 -10.052 -10.044 -10.042
-10.032 -10.030 -10.025 -10.023 -10.015 -10.014  -1.023  -1.012
 -1.007  -0.996  -0.974  -0.964  -0.950  -0.938  -0.937  -0.924
 -0.768  -0.757  -0.730  -0.719  -0.712  -0.703  -0.698  -0.664
 -0.656  -0.624  -0.596  -0.589  -0.551  -0.542  -0.541  -0.532
 -0.514  -0.506  -0.480  -0.475  -0.467  -0.461  -0.453  -0.449
 -0.436  -0.431  -0.425  -0.416  -0.415  -0.408  -0.406  -0.402
 -0.394  -0.382  -0.376  -0.373  -0.361  -0.356  -0.354  -0.351
 -0.346  -0.342  -0.338  -0.336  -0.329  -0.324  -0.322  -0.317
 -0.310  -0.309  -0.305  -0.300  -0.296  -0.288  -0.281  -0.278
 -0.270  -0.260  -0.253  -0.246  -0.238  -0.229  -0.228  -0.190
 -0.177  -0.169  -0.165  -0.162  -0.155  -0.152  -0.148  -0.139
 -0.138

          Ground-State Mulliken Net Atomic Charges

     Atom                 Charge (a.u.)
  ----------------------------------------
      1 O                    -0.216515
      2 C                     0.215131
      3 C                    -0.082585
      4 C                    -0.079878
      5 C                     0.233640
      6 O                    -0.193576
      7 C                    -0.046012
      8 C                    -0.058564
      9 O                    -0.170094
     10 C                     0.208188
     11 C                    -0.078483
     12 C                    -0.077436
     13 C                     0.205842
     14 O                    -0.206963
     15 O                    -0.177873
     16 O                    -0.168414
     17 O                    -0.212049
     18 C                    -0.128650
     19 C                     0.025148
     20 C                    -0.143746
     21 C                    -0.144343
     22 C                     0.025250
     23 O                    -0.185593
     24 H                     0.085431
     25 H                     0.086356
     26 H                     0.082408
     27 H                     0.078446
     28 H                     0.072977
     29 H                     0.079059
     30 H                     0.073624
     31 H                     0.089423
     32 O                    -0.179228
     33 C                    -0.129118
     34 C                     0.025506
     35 C                    -0.144052
     36 C                    -0.144035
     37 C                     0.024752
     38 O                    -0.188413
     39 H                     0.081661
     40 H                     0.090977
     41 H                     0.087947
     42 H                     0.084757
     43 H                     0.077275
     44 H                     0.071564
     45 H                     0.078305
     46 H                     0.074347
     47 H                     0.091977
     48 H                     0.086160
     49 H                     0.084162
     50 H                     0.090522
     51 H                     0.089242
     52 H                     0.091111
     53 H                     0.093214
     54 H                     0.102324
     55 H                     0.090187
     56 H                     0.078708
  ----------------------------------------
  Sum of atomic charges =     0.000000

                    Cartesian Multipole Moments
 -----------------------------------------------------------------
    Charge (ESU x 10^10)
                -0.0000
    Dipole Moment (Debye)
         X       2.4651      Y       0.3900      Z      -4.7035
       Tot       5.3246
    Quadrupole Moments (Debye-Ang)
        XX    -164.9169     XY       8.2576     YY    -150.9037
        XZ       3.3030     YZ       1.1931     ZZ    -160.8077

 Total job time:  65.20s(wall), 3108.32s(cpu)
        *  Thank you very much for using Q-Chem.  Have a nice day.  *
