 Q-Chem 5.0, Q-Chem, Inc., Pleasanton, CA (2017)
 Q-Chem 5.0.1 for Intel X86 EM64T Linux

User input:
--------------------------------------------------------------
$molecule
0  1
O -3.5367779369 1.797872437 1.4788254101
C -3.5596483236 1.6300505872 0.2411586583
C -3.6982444688 0.2735992377 -0.5449712132
C -2.4636649669 -0.7011489195 -0.3701827766
C -1.1794309412 -0.017128669 0.2308384915
O -0.202018543 -0.921616444 0.7963241902
C 0.416798289 -1.7799156225 -0.2421127326
C 1.4466108197 -2.7009840561 0.5096821422
O 2.7717000071 -2.069867166 0.6984459288
C 2.6444646963 -0.9459206945 1.5978976384
C 3.1402715662 0.4411267455 1.0227417199
C 3.9403432843 0.6192888422 -0.3440267059
C 4.0121180497 -0.4397760494 -1.5026680331
O 4.8969921891 -0.4309344029 -2.3894953475
O -3.4894913809 2.691591256 -0.7208222359
O 2.7980578233 -1.180744049 -1.6622927907
O 2.1607257518 -1.0467631483 2.7466056096
C 2.8670992627 -2.0035043056 -2.8913184417
C 1.8935993635 1.4196976936 0.7839700114
C 2.3677209526 2.888248272 1.0949429037
C 3.3314519182 3.1475636489 -0.1206595018
C 3.109897587 1.8362552934 -0.9750355271
O 1.7181369272 1.4334472964 -0.6847177843
H 3.7667746018 0.8744051414 1.8243217668
H 4.9848946734 0.9121258366 -0.1357955449
H 0.9450380703 1.1059087593 1.2619989049
H 1.5047741422 3.5731886827 1.0770193589
H 2.8706421914 2.9742706869 2.0710803398
H 3.0365203208 4.0387623512 -0.6967944671
H 4.3833127177 3.2598468053 0.187442407
H 3.2617055593 1.962653909 -2.0649339191
O -1.0545851089 1.2145233794 0.4091783959
C -3.2774996442 3.9802292241 -0.024050709
C -4.8327338067 -0.6088685985 0.1351199397
C -5.1274881284 -1.876243851 -0.7636918507
C -3.9069009713 -2.8044524732 -0.4052877124
C -3.0822653556 -1.8489459275 0.5419799541
O -4.1358899496 -1.1629979544 1.3201235151
H -3.9003554466 0.4937843231 -1.6073362847
H -2.1869036386 -1.1182998904 -1.3558672907
H -2.3398266396 3.9666490085 0.5682337423
H -5.7276835742 -0.0377817868 0.449263713
H -6.0860808192 -2.3379639029 -0.4793670876
H -5.1634043833 -1.6198762803 -1.8346572214
H -4.2319749875 -3.7014022619 0.1457393723
H -3.3336114896 -3.1203761614 -1.2914436525
H -2.3527861932 -2.3402369964 1.2150515097
H -4.1202162082 4.223085631 0.6554248854
H -3.2069143264 4.7493284684 -0.8150829027
H 1.891442997 -2.5175935977 -2.9660798555
H 3.6783735772 -2.7569437583 -2.8326777299
H 3.0303743393 -1.3788671383 -3.7931454744
H 1.0052662567 -3.0166147684 1.4825466944
H 1.6418853218 -3.6058271239 -0.1017735429
H 0.9870884075 -1.1714354368 -0.9829032142
H -0.3354109421 -2.4154926259 -0.7591832883
$end

$rem
JOBTYPE                   OPT
METHOD                    B3LYP
DFT_D                     d3_op
BASIS                     STO-3G
GEOM_OPT_MAX_CYCLES       100
GEOM_OPT_TOL_GRADIENT     300
GEOM_OPT_TOL_DISPLACEMENT 1200
GEOM_OPT_TOL_ENERGY       100
SYMMETRY                  False
THRESH                    12
SCF_CONVERGENCE           8
MAX_SUB_FILE_NUM          128
MEM_STATIC                400
MEM_TOTAL                 4000
$end
--------------------------------------------------------------

   16   -1510.2442835193      3.30E-09 Convergence criterion met
 Total energy in the final basis set = -1510.24428352
   14   -1510.2471660279      6.96E-09 Convergence criterion met
 Total energy in the final basis set = -1510.24716603
   14   -1510.2520639328      2.95E-09 Convergence criterion met
 Total energy in the final basis set = -1510.25206393
   13   -1510.2565732779      6.90E-09 Convergence criterion met
 Total energy in the final basis set = -1510.25657328
   13   -1510.2600839400      6.07E-09 Convergence criterion met
 Total energy in the final basis set = -1510.26008394
   13   -1510.2631992160      6.96E-09 Convergence criterion met
 Total energy in the final basis set = -1510.26319922
   13   -1510.2660289881      9.74E-09 Convergence criterion met
 Total energy in the final basis set = -1510.26602899
   14   -1510.2682759040      4.58E-09 Convergence criterion met
   11   -1510.2946366058      8.84E-09 Convergence criterion met
 Total energy in the final basis set = -1510.29463661
   11   -1510.2946324938      4.59E-09 Convergence criterion met
 Total energy in the final basis set = -1510.29463249
   11   -1510.2946399547      2.78E-09 Convergence criterion met
 Total energy in the final basis set = -1510.29463995
   11   -1510.2946384401      2.99E-09 Convergence criterion met
 Total energy in the final basis set = -1510.29463844
   10   -1510.2946387549      4.22E-09 Convergence criterion met
 Total energy in the final basis set = -1510.29463875
   10   -1510.2946395460      6.80E-09 Convergence criterion met
 Total energy in the final basis set = -1510.29463955

             Standard Nuclear Orientation (Angstroms)
    I     Atom           X                Y                Z
 ----------------------------------------------------------------
    1      O      -3.8572693729     1.8717725317     0.8832941274
    2      C      -2.6784059526     1.5211706499     0.6728436763
    3      C      -2.1538810596     0.4923862795    -0.3910350063
    4      C      -1.4401217230    -0.7908844809     0.1991042910
    5      C      -1.6371002932    -0.8753222782     1.7614532362
    6      O      -1.0492390160    -1.9446973381     2.5207205477
    7      C       0.0967278182    -2.6402506712     1.9065368077
    8      C       1.4813160178    -2.0131401226     2.3489201270
    9      O       2.0521423678    -1.0783348384     1.3526628889
   10      C       1.4542662258     0.2190906764     1.4449511209
   11      C       2.0428581087     1.1666113807     0.3422600918
   12      C       2.6637432572     0.4896694778    -0.9533862043
   13      C       2.6786952610    -1.0766961924    -1.0069730619
   14      O       3.6995744023    -1.7962284974    -0.9645756591
   15      O      -1.5328769518     2.1828756074     1.2588733889
   16      O       1.3561592378    -1.6074401095    -1.2456496155
   17      O       0.6079947591     0.5338572970     2.3093052041
   18      C       1.4646288032    -3.0794357396    -1.3956889845
   19      C       0.8921259074     2.0596536932    -0.2896754083
   20      C       1.5584709667     3.3049317377    -0.9898927040
   21      C       2.1875050665     2.6416934619    -2.2732494770
   22      C       1.7519060219     1.1348284890    -2.0856998278
   23      O       0.4301542447     1.2405093179    -1.4355544452
   24      H       2.8022700059     1.8021765103     0.8345037543
   25      H       3.7171187813     0.8005282799    -1.0684851367
   26      H       0.0282235455     2.2507008688     0.3985319971
   27      H       0.7932631467     4.0514619852    -1.2562433406
   28      H       2.3126861523     3.7871817164    -0.3480064216
   29      H       1.7540592980     3.0556603861    -3.1976330138
   30      H       3.2827565306     2.7520680278    -2.3168056610
   31      H       1.6841339549     0.5393117014    -3.0167099371
   32      O      -2.4154984372    -0.1205717019     2.3912250970
   33      C      -1.9579024043     3.1019324586     2.3318862057
   34      C      -3.3332333350    -0.1539204820    -1.2269352690
   35      C      -2.7232352752    -0.6763617928    -2.5832811149
   36      C      -1.8787906112    -1.8999716971    -2.0711457005
   37      C      -2.2735146066    -1.9306173147    -0.5367382179
   38      O      -3.6549104231    -1.4069475781    -0.5016043815
   39      H      -1.4242230804     0.9999849720    -1.0527182259
   40      H      -0.3758956459    -0.8143645009    -0.1058342385
   41      H      -2.4612794187     2.5477387319     3.1500871501
   42      H      -4.2342985543     0.4843960602    -1.3092532550
   43      H      -3.5229726957    -0.9948958419    -3.2710941966
   44      H      -2.1026408224     0.0853850675    -3.0812039067
   45      H      -2.1662512005    -2.8381974979    -2.5712972914
   46      H      -0.7975359625    -1.7333352390    -2.2000486972
   47      H      -2.2282685310    -2.9280082900    -0.0570561415
   48      H      -2.6479431174     3.8844639843     1.9537187354
   49      H      -1.0351832581     3.5729455744     2.7177196074
   50      H       0.4320012007    -3.4661825869    -1.4584715814
   51      H       1.9875247857    -3.5409905209    -0.5343109141
   52      H       2.0128764374    -3.3509002553    -2.3208058409
   53      H       1.3470339621    -1.5095736155     3.3307089375
   54      H       2.2345116271    -2.8211139966     2.4445983671
   55      H       0.0445756149    -2.6854341780     0.8027198974
   56      H       0.0502766349    -3.6775012448     2.3001647478
 ----------------------------------------------------------------

    9   -1510.2946406860      8.03E-09 Convergence criterion met
 Total energy in the final basis set = -1510.29464069
 Final energy is   -1510.29464068603
 **  OPTIMIZATION CONVERGED  **

                    Orbital Energies (a.u.)
 --------------------------------------------------------------

 Alpha MOs
 -- Occupied --
-18.950 -18.940 -18.934 -18.919 -18.895 -18.889 -18.879 -18.879
-18.878 -18.855 -10.112 -10.107 -10.101 -10.086 -10.084 -10.083
-10.072 -10.068 -10.055 -10.052 -10.047 -10.046 -10.045 -10.044
-10.026 -10.024 -10.021 -10.014 -10.013 -10.011  -1.029  -1.015
 -1.006  -0.992  -0.977  -0.962  -0.951  -0.941  -0.936  -0.920
 -0.769  -0.753  -0.731  -0.716  -0.712  -0.708  -0.696  -0.669
 -0.649  -0.622  -0.599  -0.590  -0.549  -0.542  -0.539  -0.531
 -0.520  -0.510  -0.492  -0.485  -0.468  -0.458  -0.451  -0.445
 -0.436  -0.433  -0.428  -0.419  -0.415  -0.410  -0.404  -0.399
 -0.398  -0.392  -0.375  -0.375  -0.363  -0.356  -0.351  -0.347
 -0.343  -0.340  -0.335  -0.331  -0.324  -0.321  -0.318  -0.316
 -0.309  -0.307  -0.305  -0.303  -0.298  -0.294  -0.284  -0.269
 -0.266  -0.258  -0.257  -0.243  -0.238  -0.233  -0.222  -0.195
 -0.184  -0.172  -0.164  -0.161  -0.157  -0.152  -0.147  -0.137
 -0.135

          Ground-State Mulliken Net Atomic Charges

     Atom                 Charge (a.u.)
  ----------------------------------------
      1 O                    -0.216689
      2 C                     0.221499
      3 C                    -0.092882
      4 C                    -0.090478
      5 C                     0.219566
      6 O                    -0.169977
      7 C                    -0.052204
      8 C                    -0.052332
      9 O                    -0.173331
     10 C                     0.209949
     11 C                    -0.080615
     12 C                    -0.081583
     13 C                     0.216833
     14 O                    -0.214686
     15 O                    -0.179132
     16 O                    -0.176941
     17 O                    -0.203611
     18 C                    -0.132188
     19 C                     0.004711
     20 C                    -0.145273
     21 C                    -0.144103
     22 C                     0.027179
     23 O                    -0.198848
     24 H                     0.087137
     25 H                     0.086624
     26 H                     0.119675
     27 H                     0.077961
     28 H                     0.072865
     29 H                     0.077764
     30 H                     0.073864
     31 H                     0.082841
     32 O                    -0.190097
     33 C                    -0.124911
     34 C                     0.023616
     35 C                    -0.142491
     36 C                    -0.149195
     37 C                     0.020793
     38 O                    -0.190676
     39 H                     0.106615
     40 H                     0.093676
     41 H                     0.096346
     42 H                     0.088477
     43 H                     0.074799
     44 H                     0.075666
     45 H                     0.071782
     46 H                     0.080848
     47 H                     0.074489
     48 H                     0.085572
     49 H                     0.086590
     50 H                     0.088514
     51 H                     0.089748
     52 H                     0.089007
     53 H                     0.102628
     54 H                     0.092272
     55 H                     0.091368
     56 H                     0.090971
  ----------------------------------------
  Sum of atomic charges =    -0.000000

                    Cartesian Multipole Moments
 -----------------------------------------------------------------
    Charge (ESU x 10^10)
                -0.0000
    Dipole Moment (Debye)
         X       4.3896      Y      -0.5153      Z      -2.1896
       Tot       4.9324
    Quadrupole Moments (Debye-Ang)
        XX    -180.7436     XY       4.1906     YY    -145.6049
        XZ       8.4485     YZ      -1.0518     ZZ    -159.3158

 Total job time:  131.28s(wall), 6259.81s(cpu)
        *  Thank you very much for using Q-Chem.  Have a nice day.  *
