 Q-Chem 5.0, Q-Chem, Inc., Pleasanton, CA (2017)
 Q-Chem 5.0.1 for Intel X86 EM64T Linux

User input:
--------------------------------------------------------------
$molecule
0  1
O -3.94934 -3.66094 2.70899
C -3.26408 -4.56952 2.26188
C -3.36658 -6.02376 2.66595
C -2.97353 -6.38153 4.10864
C -2.69204 -5.22192 5.03825
O -2.77315 -5.63783 6.33665
C -1.7488 -6.57186 6.69381
C -1.90352 -6.98933 8.15254
O -1.24561 -6.03961 9.00581
C -1.79201 -4.79859 9.02732
C -0.80952 -3.71649 8.64728
C 0.65067 -4.17846 8.53453
C 0.86597 -5.67683 8.46217
O 1.91814 -6.25382 8.69577
O -2.37953 -4.28862 1.26878
O 0.63563 -6.05775 7.18666
O -2.99553 -4.59943 9.11618
C 1.35038 -7.01592 6.43009
C -1.00686 -3.01292 7.29576
C -0.40679 -1.60858 7.36104
C 1.07525 -1.93265 7.41173
C 1.03165 -3.45365 7.21983
O -0.11279 -3.65777 6.42149
H -0.91298 -2.95612 9.45479
H 1.24215 -3.83184 9.41084
H -2.07082 -2.96108 6.9861
H -0.63108 -1.11979 6.38557
H -0.77722 -0.96072 8.18435
H 1.57204 -1.43496 6.54964
H 1.58898 -1.66133 8.35922
H 1.99408 -3.82608 6.8054
O -2.59905 -4.03986 4.76321
C -2.16519 -3.02784 0.75247
C -4.81669 -6.52102 2.59608
C -4.84334 -8.04153 2.45596
C -4.42487 -8.45554 3.84859
C -4.29973 -7.08508 4.52261
O -5.29684 -6.3145 3.89836
H -2.73661 -6.59642 1.94674
H -2.1178 -7.08912 4.11883
H -1.80627 -2.34373 1.55102
H -5.40015 -6.04755 1.77574
H -5.9015 -8.34954 2.29674
H -4.21372 -8.44027 1.63157
H -5.26313 -9.02515 4.309
H -3.48715 -9.04885 3.91103
H -4.42194 -7.21847 5.61825
H -3.10382 -2.63027 0.31055
H -1.39315 -3.08638 -0.04189
H 0.98813 -7.06459 5.38299
H 1.25009 -8.02079 6.89491
H 2.42465 -6.7365 6.3638
H -2.97136 -7.12574 8.43855
H -1.38769 -7.96415 8.2999
H -0.95653 -6.52278 5.96586
H -2.10493 -7.53471 6.26772
$end

$opt
CONSTRAINT
tors           1           2           3           4     -66.316
tors           3           4           5           6    +161.053
tors           4           5           6           7     +66.316
tors           5           6           7           8    -180.000
tors           6           7           8           9     -85.263
tors           7           8           9          10     +66.316
tors           8           9          10          11    -123.158
tors           9          10          11          12      -9.474
tors          11          12          13          14    -161.053
ENDCONSTRAINT
$end

$rem
JOBTYPE                   OPT
METHOD                    B3LYP
DFT_D                     d3_op
BASIS                     STO-3G
GEOM_OPT_MAX_CYCLES       100
GEOM_OPT_TOL_GRADIENT     300
GEOM_OPT_TOL_DISPLACEMENT 1200
GEOM_OPT_TOL_ENERGY       100
SYMMETRY                  False
THRESH                    12
SCF_CONVERGENCE           8
MAX_SUB_FILE_NUM          128
MEM_STATIC                400
MEM_TOTAL                 4000
$end
--------------------------------------------------------------

   16   -1509.9986479378      3.12E-09 Convergence criterion met
 Total energy in the final basis set = -1509.99864794
   14   -1510.0883377145      8.82E-09 Convergence criterion met
 Total energy in the final basis set = -1510.08833771
   14   -1510.1399441735      7.81E-09 Convergence criterion met
 Total energy in the final basis set = -1510.13994417
   14   -1510.1764292210      9.73E-09 Convergence criterion met
 Total energy in the final basis set = -1510.17642922
   14   -1510.1982391503      7.55E-09 Convergence criterion met
 Total energy in the final basis set = -1510.19823915
   14   -1510.2129243555      4.21E-09 Convergence criterion met
 Total energy in the final basis set = -1510.21292436
   14   -1510.2235554507      3.52E-09 Convergence criterion met
 Total energy in the final basis set = -1510.22355545
   13   -1510.2315563761      7.18E-09 Convergence criterion met
   11   -1510.2441580449      9.44E-09 Convergence criterion met
 Total energy in the final basis set = -1510.24415804
   11   -1510.2441887011      8.69E-09 Convergence criterion met
 Total energy in the final basis set = -1510.24418870
   11   -1510.2442155024      5.23E-09 Convergence criterion met
 Total energy in the final basis set = -1510.24421550
   11   -1510.2442332681      3.58E-09 Convergence criterion met
 Total energy in the final basis set = -1510.24423327
    9   -1510.2442392882      8.76E-09 Convergence criterion met
 Total energy in the final basis set = -1510.24423929
    9   -1510.2442493844      7.97E-09 Convergence criterion met
 Total energy in the final basis set = -1510.24424938

             Standard Nuclear Orientation (Angstroms)
    I     Atom           X                Y                Z
 ----------------------------------------------------------------
    1      O      -3.5367779369     1.7978724370     1.4788254101
    2      C      -3.5596483236     1.6300505872     0.2411586583
    3      C      -3.6982444688     0.2735992377    -0.5449712132
    4      C      -2.4636649669    -0.7011489195    -0.3701827766
    5      C      -1.1794309412    -0.0171286690     0.2308384915
    6      O      -0.2020185430    -0.9216164440     0.7963241902
    7      C       0.4167982890    -1.7799156225    -0.2421127326
    8      C       1.4466108197    -2.7009840561     0.5096821422
    9      O       2.7717000071    -2.0698671660     0.6984459288
   10      C       2.6444646963    -0.9459206945     1.5978976384
   11      C       3.1402715662     0.4411267455     1.0227417199
   12      C       3.9403432843     0.6192888422    -0.3440267059
   13      C       4.0121180497    -0.4397760494    -1.5026680331
   14      O       4.8969921891    -0.4309344029    -2.3894953475
   15      O      -3.4894913809     2.6915912560    -0.7208222359
   16      O       2.7980578233    -1.1807440490    -1.6622927907
   17      O       2.1607257518    -1.0467631483     2.7466056096
   18      C       2.8670992627    -2.0035043056    -2.8913184417
   19      C       1.8935993635     1.4196976936     0.7839700114
   20      C       2.3677209526     2.8882482720     1.0949429037
   21      C       3.3314519182     3.1475636489    -0.1206595018
   22      C       3.1098975870     1.8362552934    -0.9750355271
   23      O       1.7181369272     1.4334472964    -0.6847177843
   24      H       3.7667746018     0.8744051414     1.8243217668
   25      H       4.9848946734     0.9121258366    -0.1357955449
   26      H       0.9450380703     1.1059087593     1.2619989049
   27      H       1.5047741422     3.5731886827     1.0770193589
   28      H       2.8706421914     2.9742706869     2.0710803398
   29      H       3.0365203208     4.0387623512    -0.6967944671
   30      H       4.3833127177     3.2598468053     0.1874424070
   31      H       3.2617055593     1.9626539090    -2.0649339191
   32      O      -1.0545851089     1.2145233794     0.4091783959
   33      C      -3.2774996442     3.9802292241    -0.0240507090
   34      C      -4.8327338067    -0.6088685985     0.1351199397
   35      C      -5.1274881284    -1.8762438510    -0.7636918507
   36      C      -3.9069009713    -2.8044524732    -0.4052877124
   37      C      -3.0822653556    -1.8489459275     0.5419799541
   38      O      -4.1358899496    -1.1629979544     1.3201235151
   39      H      -3.9003554466     0.4937843231    -1.6073362847
   40      H      -2.1869036386    -1.1182998904    -1.3558672907
   41      H      -2.3398266396     3.9666490085     0.5682337423
   42      H      -5.7276835742    -0.0377817868     0.4492637130
   43      H      -6.0860808192    -2.3379639029    -0.4793670876
   44      H      -5.1634043833    -1.6198762803    -1.8346572214
   45      H      -4.2319749875    -3.7014022619     0.1457393723
   46      H      -3.3336114896    -3.1203761614    -1.2914436525
   47      H      -2.3527861932    -2.3402369964     1.2150515097
   48      H      -4.1202162082     4.2230856310     0.6554248854
   49      H      -3.2069143264     4.7493284684    -0.8150829027
   50      H       1.8914429970    -2.5175935977    -2.9660798555
   51      H       3.6783735772    -2.7569437583    -2.8326777299
   52      H       3.0303743393    -1.3788671383    -3.7931454744
   53      H       1.0052662567    -3.0166147684     1.4825466944
   54      H       1.6418853218    -3.6058271239    -0.1017735429
   55      H       0.9870884075    -1.1714354368    -0.9829032142
   56      H      -0.3354109421    -2.4154926259    -0.7591832883
 ----------------------------------------------------------------

    9   -1510.2442489489      5.92E-09 Convergence criterion met
 Total energy in the final basis set = -1510.24424895
 Final energy is   -1510.24424894890
 **  OPTIMIZATION CONVERGED  **

                    Orbital Energies (a.u.)
 --------------------------------------------------------------

 Alpha MOs
 -- Occupied --
-18.943 -18.922 -18.915 -18.910 -18.905 -18.890 -18.885 -18.884
-18.872 -18.860 -10.111 -10.103 -10.100 -10.089 -10.072 -10.070
-10.065 -10.063 -10.060 -10.059 -10.054 -10.049 -10.040 -10.039
-10.035 -10.032 -10.024 -10.022 -10.018 -10.014  -1.017  -1.013
 -1.001  -0.997  -0.972  -0.969  -0.945  -0.937  -0.929  -0.923
 -0.764  -0.757  -0.724  -0.719  -0.710  -0.705  -0.698  -0.666
 -0.655  -0.608  -0.600  -0.585  -0.548  -0.540  -0.537  -0.533
 -0.518  -0.512  -0.485  -0.479  -0.464  -0.456  -0.453  -0.441
 -0.436  -0.429  -0.419  -0.416  -0.412  -0.407  -0.406  -0.402
 -0.395  -0.379  -0.378  -0.364  -0.359  -0.354  -0.352  -0.348
 -0.344  -0.342  -0.340  -0.332  -0.327  -0.325  -0.317  -0.314
 -0.311  -0.309  -0.305  -0.299  -0.294  -0.290  -0.280  -0.274
 -0.266  -0.255  -0.246  -0.245  -0.239  -0.233  -0.232  -0.185
 -0.172  -0.167  -0.160  -0.154  -0.152  -0.148  -0.146  -0.143
 -0.138

          Ground-State Mulliken Net Atomic Charges

     Atom                 Charge (a.u.)
  ----------------------------------------
      1 O                    -0.213742
      2 C                     0.212923
      3 C                    -0.079866
      4 C                    -0.084431
      5 C                     0.223978
      6 O                    -0.191068
      7 C                    -0.063198
      8 C                    -0.042605
      9 O                    -0.184913
     10 C                     0.217456
     11 C                    -0.083058
     12 C                    -0.078703
     13 C                     0.213579
     14 O                    -0.217163
     15 O                    -0.172229
     16 O                    -0.163598
     17 O                    -0.192806
     18 C                    -0.127042
     19 C                     0.020786
     20 C                    -0.142218
     21 C                    -0.145090
     22 C                     0.024791
     23 O                    -0.193648
     24 H                     0.083934
     25 H                     0.085726
     26 H                     0.105343
     27 H                     0.080452
     28 H                     0.074687
     29 H                     0.077794
     30 H                     0.073635
     31 H                     0.080265
     32 O                    -0.177265
     33 C                    -0.128219
     34 C                     0.026144
     35 C                    -0.145129
     36 C                    -0.142964
     37 C                     0.023160
     38 O                    -0.183654
     39 H                     0.085047
     40 H                     0.079699
     41 H                     0.092773
     42 H                     0.084496
     43 H                     0.078743
     44 H                     0.073475
     45 H                     0.078836
     46 H                     0.070122
     47 H                     0.087810
     48 H                     0.086001
     49 H                     0.086771
     50 H                     0.085730
     51 H                     0.091399
     52 H                     0.091231
     53 H                     0.089356
     54 H                     0.085201
     55 H                     0.111432
     56 H                     0.069832
  ----------------------------------------
  Sum of atomic charges =     0.000000

                    Cartesian Multipole Moments
 -----------------------------------------------------------------
    Charge (ESU x 10^10)
                 0.0000
    Dipole Moment (Debye)
         X      -0.5265      Y      -1.0686      Z      -3.6138
       Tot       3.8051
    Quadrupole Moments (Debye-Ang)
        XX    -160.9444     XY       7.2771     YY    -146.5889
        XZ      10.7456     YZ       6.1878     ZZ    -168.1842

 Total job time:  67.68s(wall), 3225.22s(cpu)
        *  Thank you very much for using Q-Chem.  Have a nice day.  *
