 Q-Chem 5.0, Q-Chem, Inc., Pleasanton, CA (2017)
 Q-Chem 5.0.1 for Intel X86 EM64T Linux

User input:
--------------------------------------------------------------
$molecule
0  1
O -3.94934 -3.66094 2.70899
C -3.26408 -4.56952 2.26188
C -3.36658 -6.02376 2.66595
C -3.41669 -6.33291 4.1712
C -3.53792 -5.14515 5.09996
O -4.64457 -5.28366 5.88835
C -4.99764 -6.65006 6.12825
C -3.75466 -7.532 6.07075
O -2.70125 -6.94455 6.85056
C -1.70379 -7.78881 7.21313
C -1.78135 -8.20271 8.66342
C -1.8538 -9.71814 8.9011
C -1.48394 -10.59089 7.71864
O -0.86106 -11.64104 7.78012
O -2.24307 -4.25215 1.42052
O -2.21633 -10.38675 6.59041
O -0.79721 -8.09366 6.45113
C -2.13992 -11.16185 5.45128
C -0.52303 -7.84351 9.47612
C -0.88663 -7.73066 10.95518
C -1.16414 -9.18321 11.28852
C -0.75099 -9.8518 9.97046
O 0.25786 -9.01353 9.45959
H -2.65772 -7.6871 9.12163
H -2.86169 -10.0422 9.24162
H -0.02316 -6.91383 9.12628
H 0.03919 -7.41351 11.48715
H -1.70746 -7.02336 11.20181
H -0.49267 -9.48483 12.12275
H -2.22059 -9.41922 11.54154
H -0.45932 -10.90882 10.15508
O -2.79091 -4.18027 5.14576
C -1.96641 -2.9752 0.97887
C -4.54501 -6.58468 1.86396
C -4.22515 -7.99384 1.41444
C -4.06051 -8.61811 2.7588
C -4.61687 -7.45621 3.64281
O -5.49475 -6.74948 2.83224
H -2.44296 -6.4728 2.21904
H -2.38666 -6.74417 4.34787
H -1.73462 -2.31353 1.84073
H -4.87182 -5.9807 0.98589
H -5.14341 -8.38184 0.9162
H -3.3506 -8.11688 0.73965
H -4.66065 -9.55781 2.76779
H -3.00769 -8.83062 3.0452
H -5.2182 -8.11234 4.29801
H -2.83394 -2.56934 0.41575
H -1.0858 -3.00611 0.30505
H -2.8485 -10.76825 4.69501
H -2.41597 -12.21279 5.68213
H -1.11136 -11.1247 5.03336
H -4.14621 -8.3802 6.68207
H -3.3404 -8.30765 5.37671
H -5.99006 -6.91808 5.71055
H -5.26238 -6.64122 7.21096
$end

$opt
CONSTRAINT
tors           1           2           3           4     -47.368
tors           3           4           5           6    +123.158
tors           4           5           6           7     +28.421
tors           5           6           7           8     +28.421
tors           6           7           8           9     +47.368
tors           7           8           9          10    +161.053
tors           8           9          10          11    -104.211
tors           9          10          11          12    +123.158
tors          11          12          13          14    +142.105
ENDCONSTRAINT
$end

$rem
JOBTYPE                   OPT
METHOD                    B3LYP
DFT_D                     d3_op
BASIS                     STO-3G
GEOM_OPT_MAX_CYCLES       100
GEOM_OPT_TOL_GRADIENT     300
GEOM_OPT_TOL_DISPLACEMENT 1200
GEOM_OPT_TOL_ENERGY       100
SYMMETRY                  False
THRESH                    12
SCF_CONVERGENCE           8
MAX_SUB_FILE_NUM          128
MEM_STATIC                400
MEM_TOTAL                 4000
$end
--------------------------------------------------------------

   16   -1509.9413994518      4.26E-09 Convergence criterion met
 Total energy in the final basis set = -1509.94139945
   15   -1510.0353215474      6.83E-09 Convergence criterion met
 Total energy in the final basis set = -1510.03532155
   13   -1510.1012885164      9.42E-09 Convergence criterion met
 Total energy in the final basis set = -1510.10128852
   13   -1510.1439858433      7.43E-09 Convergence criterion met
 Total energy in the final basis set = -1510.14398584
   13   -1510.1727422139      7.30E-09 Convergence criterion met
 Total energy in the final basis set = -1510.17274221
   13   -1510.1914013203      6.98E-09 Convergence criterion met
 Total energy in the final basis set = -1510.19140132
   13   -1510.2032744286      5.68E-09 Convergence criterion met
 Total energy in the final basis set = -1510.20327443
   13   -1510.2105783527      4.39E-09 Convergence criterion met
   11   -1510.2241141038      5.04E-09 Convergence criterion met
 Total energy in the final basis set = -1510.22411410
   11   -1510.2241359117      4.70E-09 Convergence criterion met
 Total energy in the final basis set = -1510.22413591
   10   -1510.2241508037      7.59E-09 Convergence criterion met
 Total energy in the final basis set = -1510.22415080
   10   -1510.2241562566      8.33E-09 Convergence criterion met
 Total energy in the final basis set = -1510.22415626
    9   -1510.2241604612      8.46E-09 Convergence criterion met
 Total energy in the final basis set = -1510.22416046
    9   -1510.2241621693      8.42E-09 Convergence criterion met
 Total energy in the final basis set = -1510.22416217

             Standard Nuclear Orientation (Angstroms)
    I     Atom           X                Y                Z
 ----------------------------------------------------------------
    1      O      -4.8908196518     0.9600085604     1.0863515346
    2      C      -4.9297654561     0.8161514600    -0.1546444760
    3      C      -4.0660330688    -0.1551344605    -1.0351814181
    4      C      -2.4990420181    -0.1046344148    -0.6813885613
    5      C      -2.2347573905     1.2722320953     0.0940737045
    6      O      -1.6666553086     1.4811579012     1.3892526249
    7      C      -0.6863542022     0.5851862546     2.0432435153
    8      C       0.2833809283    -0.2663190810     1.1407204232
    9      O       0.8423754352     0.6567622947     0.1273116984
   10      C       2.0576018267     0.0837281246    -0.4488939987
   11      C       3.3525963110     0.7824268858     0.1200424889
   12      C       4.4109782448    -0.1761241187     0.8153117352
   13      C       4.0571013151    -1.7038695759     0.8777547786
   14      O       4.8511375271    -2.6576381135     0.7374299995
   15      O      -5.8473420412     1.4983769826    -1.0165367316
   16      O       2.6810575211    -1.8666701597     1.2404767741
   17      O       2.0297692112    -0.7682757947    -1.3606684575
   18      C       2.3145618754    -3.3007064053     1.2500825982
   19      C       4.2432340639     1.3811527380    -1.0574845779
   20      C       5.2570707305     2.4216652791    -0.4356616088
   21      C       6.3072902751     1.4600822214     0.2356348075
   22      C       5.6848880512     0.0507851415    -0.1030793288
   23      O       5.1006394794     0.2415382710    -1.4504899862
   24      H       3.0219757314     1.5727480670     0.8163062417
   25      H       4.5996878148     0.1599676037     1.8526241923
   26      H       3.6642025761     1.7487364492    -1.9267419576
   27      H       5.7166077228     3.0330188268    -1.2284098606
   28      H       4.7678606077     3.0912582766     0.2896045482
   29      H       7.3017378562     1.5618686482    -0.2273016481
   30      H       6.4042179266     1.6233100015     1.3209713505
   31      H       6.3874362808    -0.8055877211    -0.0993661473
   32      O      -2.6685627432     2.3240006696    -0.4378340098
   33      C      -6.6970840487     2.4157890818    -0.2226366242
   34      C      -4.4530380346    -1.6433600022    -0.6964628631
   35      C      -3.7054137944    -2.6277620771    -1.6823674583
   36      C      -2.2526648210    -2.6208183789    -1.0767542091
   37      C      -2.4168874826    -1.5369775783     0.0596142602
   38      O      -3.7623870835    -1.8201196964     0.5951517908
   39      H      -4.2469511427     0.0962420669    -2.0958268398
   40      H      -1.8790960976    -0.0996402420    -1.5948170796
   41      H      -6.0902238631     3.1941848067     0.2831708794
   42      H      -5.5413454363    -1.8185412932    -0.5905930280
   43      H      -4.1576977734    -3.6315503279    -1.6489366078
   44      H      -3.7336468535    -2.2622055899    -2.7215737146
   45      H      -1.9992156976    -3.5988558771    -0.6372286037
   46      H      -1.4786303935    -2.3518593557    -1.8131517199
   47      H      -1.7189439553    -1.6372951568     0.9007118002
   48      H      -7.2814861530     1.8699758837     0.5462808917
   49      H      -7.3869206739     2.8932200491    -0.9425668531
   50      H       1.2738082560    -3.3490539238     1.6196084718
   51      H       2.9775577437    -3.8863996801     1.9184170646
   52      H       2.3652292059    -3.7331723157     0.2300037021
   53      H       1.0922327758    -0.6678535839     1.7928015424
   54      H      -0.1914288491    -1.1315499932     0.6514522288
   55      H      -1.2226628999    -0.1113176120     2.7298180251
   56      H      -0.0716854253     1.2709891939     2.6630696851
 ----------------------------------------------------------------

    9   -1510.2241626529      2.15E-09 Convergence criterion met
 Total energy in the final basis set = -1510.22416265
 Final energy is   -1510.22416265289
 **  OPTIMIZATION CONVERGED  **

                    Orbital Energies (a.u.)
 --------------------------------------------------------------

 Alpha MOs
 -- Occupied --
-18.951 -18.927 -18.924 -18.902 -18.897 -18.893 -18.891 -18.888
-18.864 -18.859 -10.114 -10.110 -10.096 -10.090 -10.080 -10.078
-10.070 -10.065 -10.064 -10.061 -10.059 -10.056 -10.048 -10.041
-10.036 -10.032 -10.025 -10.024 -10.022 -10.021  -1.027  -1.007
 -1.003  -0.994  -0.976  -0.974  -0.951  -0.939  -0.927  -0.921
 -0.769  -0.758  -0.728  -0.721  -0.716  -0.707  -0.703  -0.675
 -0.656  -0.614  -0.600  -0.589  -0.552  -0.548  -0.544  -0.540
 -0.519  -0.505  -0.493  -0.473  -0.466  -0.461  -0.456  -0.443
 -0.440  -0.434  -0.430  -0.426  -0.424  -0.406  -0.405  -0.404
 -0.397  -0.390  -0.379  -0.370  -0.363  -0.362  -0.359  -0.356
 -0.351  -0.342  -0.337  -0.329  -0.325  -0.323  -0.315  -0.315
 -0.311  -0.310  -0.308  -0.304  -0.299  -0.284  -0.280  -0.277
 -0.273  -0.270  -0.247  -0.243  -0.240  -0.237  -0.220  -0.193
 -0.172  -0.169  -0.162  -0.156  -0.156  -0.151  -0.149  -0.141
 -0.135

          Ground-State Mulliken Net Atomic Charges

     Atom                 Charge (a.u.)
  ----------------------------------------
      1 O                    -0.212920
      2 C                     0.210861
      3 C                    -0.075985
      4 C                    -0.080287
      5 C                     0.215163
      6 O                    -0.168589
      7 C                    -0.042890
      8 C                    -0.059851
      9 O                    -0.203072
     10 C                     0.222219
     11 C                    -0.083287
     12 C                    -0.079824
     13 C                     0.215030
     14 O                    -0.205240
     15 O                    -0.168376
     16 O                    -0.176878
     17 O                    -0.185054
     18 C                    -0.128061
     19 C                     0.026043
     20 C                    -0.143879
     21 C                    -0.143952
     22 C                     0.024537
     23 O                    -0.186444
     24 H                     0.085229
     25 H                     0.085846
     26 H                     0.085669
     27 H                     0.079738
     28 H                     0.074917
     29 H                     0.079792
     30 H                     0.073464
     31 H                     0.091938
     32 O                    -0.206667
     33 C                    -0.128385
     34 C                     0.023947
     35 C                    -0.144416
     36 C                    -0.144684
     37 C                     0.019599
     38 O                    -0.190484
     39 H                     0.086729
     40 H                     0.090390
     41 H                     0.092816
     42 H                     0.083239
     43 H                     0.077750
     44 H                     0.075917
     45 H                     0.075282
     46 H                     0.077087
     47 H                     0.079014
     48 H                     0.087026
     49 H                     0.088873
     50 H                     0.089664
     51 H                     0.094459
     52 H                     0.095320
     53 H                     0.092840
     54 H                     0.081464
     55 H                     0.084088
     56 H                     0.093276
  ----------------------------------------
  Sum of atomic charges =     0.000000

                    Cartesian Multipole Moments
 -----------------------------------------------------------------
    Charge (ESU x 10^10)
                 0.0000
    Dipole Moment (Debye)
         X       1.4097      Y      -1.4237      Z       1.4321
       Tot       2.4627
    Quadrupole Moments (Debye-Ang)
        XX    -156.4360     XY      13.1141     YY    -159.9389
        XZ      15.6305     YZ      -1.2919     ZZ    -160.3841

 Total job time:  83.96s(wall), 4000.42s(cpu)
        *  Thank you very much for using Q-Chem.  Have a nice day.  *
