 Q-Chem 5.0, Q-Chem, Inc., Pleasanton, CA (2017)
 Q-Chem 5.0.1 for Intel X86 EM64T Linux

User input:
--------------------------------------------------------------
$molecule
0  1
O -4.8908196518 0.9600085604 1.0863515346
C -4.9297654561 0.81615146 -0.154644476
C -4.0660330688 -0.1551344605 -1.0351814181
C -2.4990420181 -0.1046344148 -0.6813885613
C -2.2347573905 1.2722320953 0.0940737045
O -1.6666553086 1.4811579012 1.3892526249
C -0.6863542022 0.5851862546 2.0432435153
C 0.2833809283 -0.266319081 1.1407204232
O 0.8423754352 0.6567622947 0.1273116984
C 2.0576018267 0.0837281246 -0.4488939987
C 3.352596311 0.7824268858 0.1200424889
C 4.4109782448 -0.1761241187 0.8153117352
C 4.0571013151 -1.7038695759 0.8777547786
O 4.8511375271 -2.6576381135 0.7374299995
O -5.8473420412 1.4983769826 -1.0165367316
O 2.6810575211 -1.8666701597 1.2404767741
O 2.0297692112 -0.7682757947 -1.3606684575
C 2.3145618754 -3.3007064053 1.2500825982
C 4.2432340639 1.381152738 -1.0574845779
C 5.2570707305 2.4216652791 -0.4356616088
C 6.3072902751 1.4600822214 0.2356348075
C 5.6848880512 0.0507851415 -0.1030793288
O 5.1006394794 0.241538271 -1.4504899862
H 3.0219757314 1.572748067 0.8163062417
H 4.5996878148 0.1599676037 1.8526241923
H 3.6642025761 1.7487364492 -1.9267419576
H 5.7166077228 3.0330188268 -1.2284098606
H 4.7678606077 3.0912582766 0.2896045482
H 7.3017378562 1.5618686482 -0.2273016481
H 6.4042179266 1.6233100015 1.3209713505
H 6.3874362808 -0.8055877211 -0.0993661473
O -2.6685627432 2.3240006696 -0.4378340098
C -6.6970840487 2.4157890818 -0.2226366242
C -4.4530380346 -1.6433600022 -0.6964628631
C -3.7054137944 -2.6277620771 -1.6823674583
C -2.252664821 -2.6208183789 -1.0767542091
C -2.4168874826 -1.5369775783 0.0596142602
O -3.7623870835 -1.8201196964 0.5951517908
H -4.2469511427 0.0962420669 -2.0958268398
H -1.8790960976 -0.099640242 -1.5948170796
H -6.0902238631 3.1941848067 0.2831708794
H -5.5413454363 -1.8185412932 -0.590593028
H -4.1576977734 -3.6315503279 -1.6489366078
H -3.7336468535 -2.2622055899 -2.7215737146
H -1.9992156976 -3.5988558771 -0.6372286037
H -1.4786303935 -2.3518593557 -1.8131517199
H -1.7189439553 -1.6372951568 0.9007118002
H -7.281486153 1.8699758837 0.5462808917
H -7.3869206739 2.8932200491 -0.9425668531
H 1.273808256 -3.3490539238 1.6196084718
H 2.9775577437 -3.8863996801 1.9184170646
H 2.3652292059 -3.7331723157 0.2300037021
H 1.0922327758 -0.6678535839 1.7928015424
H -0.1914288491 -1.1315499932 0.6514522288
H -1.2226628999 -0.111317612 2.7298180251
H -0.0716854253 1.2709891939 2.6630696851
$end

$rem
JOBTYPE                   OPT
METHOD                    B3LYP
DFT_D                     d3_op
BASIS                     STO-3G
GEOM_OPT_MAX_CYCLES       100
GEOM_OPT_TOL_GRADIENT     300
GEOM_OPT_TOL_DISPLACEMENT 1200
GEOM_OPT_TOL_ENERGY       100
SYMMETRY                  False
THRESH                    12
SCF_CONVERGENCE           8
MAX_SUB_FILE_NUM          128
MEM_STATIC                400
MEM_TOTAL                 4000
$end
--------------------------------------------------------------

   16   -1510.2240833223      6.15E-09 Convergence criterion met
 Total energy in the final basis set = -1510.22408332
   15   -1510.2295831200      3.64E-09 Convergence criterion met
 Total energy in the final basis set = -1510.22958312
   15   -1510.2387201830      2.66E-09 Convergence criterion met
 Total energy in the final basis set = -1510.23872018
   15   -1510.2424562847      1.71E-09 Convergence criterion met
 Total energy in the final basis set = -1510.24245628
   15   -1510.2455463406      2.58E-09 Convergence criterion met
 Total energy in the final basis set = -1510.24554634
   14   -1510.2491386988      3.53E-09 Convergence criterion met
 Total energy in the final basis set = -1510.24913870
   14   -1510.2419934056      3.56E-09 Convergence criterion met
 Total energy in the final basis set = -1510.24199341
   14   -1510.2522257095      3.92E-09 Convergence criterion met
   11   -1510.2958822114      6.14E-09 Convergence criterion met
 Total energy in the final basis set = -1510.29588221
   10   -1510.2958897598      9.34E-09 Convergence criterion met
 Total energy in the final basis set = -1510.29588976
    9   -1510.2958945925      9.87E-09 Convergence criterion met
 Total energy in the final basis set = -1510.29589459
    9   -1510.2958954772      3.70E-09 Convergence criterion met
 Total energy in the final basis set = -1510.29589548
    9   -1510.2958958991      4.41E-09 Convergence criterion met
 Total energy in the final basis set = -1510.29589590
    8   -1510.2958961330      9.97E-09 Convergence criterion met
 Total energy in the final basis set = -1510.29589613

             Standard Nuclear Orientation (Angstroms)
    I     Atom           X                Y                Z
 ----------------------------------------------------------------
    1      O      -3.5732721012     1.9914036205    -1.4056852819
    2      C      -2.5711889501     1.5322323929    -0.8226774521
    3      C      -1.8320263731     0.1731407789    -1.0655963619
    4      C      -1.6755574920    -0.7182005528     0.2277909448
    5      C      -2.6157997111    -0.2073787079     1.3839207459
    6      O      -2.5225205019    -0.7717190143     2.7024015168
    7      C      -1.2272372100    -1.3815836746     3.0522885453
    8      C      -0.1974180630    -0.3066370525     3.5785163273
    9      O       0.3426179434     0.5991327444     2.5315585254
   10      C       1.3319333870    -0.0794946249     1.7577458829
   11      C       2.0293227338     0.9101801019     0.7657033809
   12      C       2.9283797441     0.1468173318    -0.2962171471
   13      C       2.7189721516    -1.4132848595    -0.2895437705
   14      O       1.7899052546    -2.0568783773    -0.8273546569
   15      O      -1.7711976882     2.3028412531     0.1104985913
   16      O       3.8637076560    -2.0161867631     0.3239138696
   17      O       1.6084132147    -1.2950646241     1.9021061247
   18      C       3.6763903574    -3.4830365575     0.3966076663
   19      C       1.0598252293     1.7428503094    -0.1843949873
   20      C       1.8827853722     2.9726737457    -0.7311931609
   21      C       2.8543208162     2.2706005254    -1.7532495665
   22      C       2.3804688051     0.7679243363    -1.6472385763
   23      O       0.9300675286     0.8834323730    -1.3821631194
   24      H       2.6428147667     1.6000625298     1.3749490656
   25      H       4.0008640630     0.3537305542    -0.1378925458
   26      H       0.0372906196     1.9818945531     0.2014137198
   27      H       1.2096259936     3.6803607894    -1.2409213252
   28      H       2.4182209546     3.5092235986     0.0680707351
   29      H       2.7085359146     2.6486212055    -2.7774537914
   30      H       3.9154415051     2.3872175433    -1.4808177404
   31      H       2.5613638604     0.1447741638    -2.5445225215
   32      O      -3.5642502991     0.5890309590     1.1897135795
   33      C      -2.4269559323     3.5917946345     0.4048018100
   34      C      -2.6074494528    -0.8123168159    -2.0341287009
   35      C      -1.5436476044    -1.8042814379    -2.6432174558
   36      C      -1.1852672862    -2.6681224129    -1.3769531137
   37      C      -2.2208497422    -2.1078245049    -0.3198854321
   38      O      -3.3889032879    -1.6875846750    -1.1255065471
   39      H      -0.8149773891     0.4012503440    -1.4555520229
   40      H      -0.6215204574    -0.7770476072     0.5362221099
   41      H      -3.3954587946     3.4367374305     0.9233348412
   42      H      -3.2786376378    -0.3086762805    -2.7567697965
   43      H      -1.9994027866    -2.4166548656    -3.4378673967
   44      H      -0.6678448309    -1.2773743322    -3.0541395890
   45      H      -1.3554766286    -3.7416960933    -1.5537857437
   46      H      -0.1369149847    -2.5093598416    -1.0609858112
   47      H      -2.5310847256    -2.8230506674     0.4671805714
   48      H      -2.6112960586     4.1791155674    -0.5182056004
   49      H      -1.7375529585     4.1467897554     1.0674829353
   50      H       4.6090466215    -3.8915997933     0.8269218521
   51      H       3.5025744438    -3.9240589486    -0.6061369086
   52      H       2.8193351902    -3.7430502181     1.0510495051
   53      H      -0.7104964419     0.3615897760     4.2991052329
   54      H       0.6322251764    -0.8395596180     4.0917227040
   55      H      -0.7755744282    -1.9768598867     2.2343732211
   56      H      -1.4475673329    -2.0666513292     3.8976842514
 ----------------------------------------------------------------

    9   -1510.2958960860      2.40E-09 Convergence criterion met
 Total energy in the final basis set = -1510.29589609
 Final energy is   -1510.29589608598
 **  OPTIMIZATION CONVERGED  **

                    Orbital Energies (a.u.)
 --------------------------------------------------------------

 Alpha MOs
 -- Occupied --
-18.957 -18.934 -18.934 -18.918 -18.900 -18.897 -18.878 -18.872
-18.871 -18.859 -10.120 -10.103 -10.099 -10.087 -10.086 -10.084
-10.069 -10.063 -10.054 -10.054 -10.049 -10.049 -10.043 -10.041
-10.027 -10.026 -10.023 -10.009 -10.001  -9.995  -1.034  -1.010
 -1.008  -0.993  -0.981  -0.957  -0.956  -0.937  -0.935  -0.922
 -0.771  -0.749  -0.732  -0.722  -0.707  -0.705  -0.690  -0.664
 -0.650  -0.624  -0.594  -0.587  -0.552  -0.545  -0.534  -0.523
 -0.519  -0.506  -0.489  -0.475  -0.470  -0.462  -0.454  -0.443
 -0.437  -0.429  -0.422  -0.416  -0.412  -0.411  -0.403  -0.401
 -0.400  -0.385  -0.380  -0.373  -0.363  -0.358  -0.357  -0.349
 -0.346  -0.339  -0.333  -0.332  -0.325  -0.321  -0.318  -0.313
 -0.311  -0.307  -0.298  -0.294  -0.288  -0.286  -0.282  -0.270
 -0.267  -0.261  -0.253  -0.243  -0.237  -0.235  -0.216  -0.204
 -0.176  -0.174  -0.170  -0.162  -0.157  -0.153  -0.148  -0.137
 -0.130

          Ground-State Mulliken Net Atomic Charges

     Atom                 Charge (a.u.)
  ----------------------------------------
      1 O                    -0.214409
      2 C                     0.219860
      3 C                    -0.097658
      4 C                    -0.085250
      5 C                     0.215327
      6 O                    -0.171701
      7 C                    -0.050335
      8 C                    -0.051671
      9 O                    -0.165112
     10 C                     0.209746
     11 C                    -0.080311
     12 C                    -0.081333
     13 C                     0.218179
     14 O                    -0.225039
     15 O                    -0.184611
     16 O                    -0.169327
     17 O                    -0.212754
     18 C                    -0.127952
     19 C                     0.009321
     20 C                    -0.143884
     21 C                    -0.144549
     22 C                     0.028365
     23 O                    -0.194694
     24 H                     0.088150
     25 H                     0.087031
     26 H                     0.117327
     27 H                     0.079031
     28 H                     0.072816
     29 H                     0.079232
     30 H                     0.074305
     31 H                     0.086108
     32 O                    -0.193159
     33 C                    -0.127605
     34 C                     0.022888
     35 C                    -0.142192
     36 C                    -0.155852
     37 C                     0.021394
     38 O                    -0.192407
     39 H                     0.113565
     40 H                     0.079094
     41 H                     0.093643
     42 H                     0.086652
     43 H                     0.072358
     44 H                     0.075060
     45 H                     0.070099
     46 H                     0.096410
     47 H                     0.075386
     48 H                     0.087021
     49 H                     0.084483
     50 H                     0.088963
     51 H                     0.088807
     52 H                     0.091234
     53 H                     0.098332
     54 H                     0.092693
     55 H                     0.094935
     56 H                     0.093990
  ----------------------------------------
  Sum of atomic charges =    -0.000000

                    Cartesian Multipole Moments
 -----------------------------------------------------------------
    Charge (ESU x 10^10)
                -0.0000
    Dipole Moment (Debye)
         X       5.8737      Y       0.2933      Z       1.8870
       Tot       6.1763
    Quadrupole Moments (Debye-Ang)
        XX    -176.8750     XY       2.7027     YY    -150.5707
        XZ      -2.9486     YZ      -2.4225     ZZ    -152.6706

 Total job time:  278.29s(wall), 13263.62s(cpu)
        *  Thank you very much for using Q-Chem.  Have a nice day.  *
