 Q-Chem 5.0, Q-Chem, Inc., Pleasanton, CA (2017)
 Q-Chem 5.0.1 for Intel X86 EM64T Linux

User input:
--------------------------------------------------------------
$molecule
0  1
O -3.94934 -3.66094 2.70899
C -3.26408 -4.56952 2.26188
C -3.36658 -6.02376 2.66595
C -3.85957 -6.32399 4.09097
C -4.36389 -5.14454 4.89263
O -3.66101 -5.0418 6.05917
C -4.32835 -4.25459 7.05124
C -4.01512 -2.77596 6.84711
O -2.62234 -2.53146 7.09863
C -2.29236 -1.23937 7.34514
C -3.42928 -0.28109 7.08098
C -3.11584 0.8325 6.07105
C -1.87708 0.62582 5.22285
O -1.04116 -0.25031 5.39074
O -2.22465 -4.25527 1.4447
O -1.64251 1.56992 4.27291
O -1.21347 -0.92337 7.82691
C -0.55152 1.57038 3.42918
C -5.00424 -0.27177 6.7022
C -5.70766 1.051 7.10394
C -5.34206 1.92822 5.93994
C -4.38167 1.00293 5.21958
O -5.01477 -0.23593 5.30203
H -3.48636 0.158 8.10133
H -2.8841 1.79152 6.59046
H -5.71129 -0.99449 7.14268
H -6.8177 0.95275 7.1093
H -5.36815 1.41327 8.09796
H -6.22907 2.04947 5.27661
H -4.94266 2.92967 6.20983
H -4.19485 1.3789 4.18998
O -5.37847 -4.50688 4.62511
C -1.93004 -2.97654 1.01926
C -4.48723 -6.72332 1.86238
C -4.24201 -8.2317 1.82617
C -4.5702 -8.60433 3.2566
C -5.0485 -7.24976 3.79069
O -5.63262 -6.62871 2.67325
H -2.40662 -6.52478 2.4044
H -3.06407 -6.84226 4.67454
H -1.71073 -2.32318 1.89102
H -4.59079 -6.3317 0.82612
H -5.01865 -8.67153 1.15989
H -3.23698 -8.54544 1.47084
H -5.40571 -9.33911 3.2459
H -3.71984 -9.00341 3.85089
H -5.70817 -7.38909 4.6759
H -2.78324 -2.55946 0.44259
H -1.03645 -3.00819 0.3628
H -0.61236 2.45025 2.75644
H -0.54598 0.64685 2.81133
H 0.38837 1.63457 4.01811
H -4.32816 -2.47975 5.82669
H -4.55522 -2.44175 7.75366
H -3.94426 -4.56724 8.04814
H -5.4267 -4.4527 7.06993
$end

$opt
CONSTRAINT
tors           1           2           3           4     -28.421
tors           3           4           5           6    -123.158
tors           4           5           6           7    -161.053
tors           5           6           7           8     -85.263
tors           6           7           8           9     -66.316
tors           7           8           9          10    -161.053
tors           8           9          10          11      -9.474
tors           9          10          11          12    -123.158
tors          11          12          13          14      -9.474
ENDCONSTRAINT
$end

$rem
JOBTYPE                   OPT
METHOD                    B3LYP
DFT_D                     d3_op
BASIS                     STO-3G
GEOM_OPT_MAX_CYCLES       100
GEOM_OPT_TOL_GRADIENT     300
GEOM_OPT_TOL_DISPLACEMENT 1200
GEOM_OPT_TOL_ENERGY       100
SYMMETRY                  False
THRESH                    12
SCF_CONVERGENCE           8
MAX_SUB_FILE_NUM          128
MEM_STATIC                400
MEM_TOTAL                 4000
$end
--------------------------------------------------------------

   16   -1510.0719575417      3.50E-09 Convergence criterion met
 Total energy in the final basis set = -1510.07195754
   14   -1510.1507031017      6.12E-09 Convergence criterion met
 Total energy in the final basis set = -1510.15070310
   14   -1510.1980600625      5.99E-09 Convergence criterion met
 Total energy in the final basis set = -1510.19806006
   14   -1510.2256594903      4.85E-09 Convergence criterion met
 Total energy in the final basis set = -1510.22565949
   13   -1510.2387110141      9.72E-09 Convergence criterion met
 Total energy in the final basis set = -1510.23871101
   13   -1510.2441756104      6.60E-09 Convergence criterion met
 Total energy in the final basis set = -1510.24417561
   13   -1510.2464271935      5.23E-09 Convergence criterion met
 Total energy in the final basis set = -1510.24642719
   13   -1510.2475089207      1.87E-09 Convergence criterion met
   11   -1510.2515174646      4.64E-09 Convergence criterion met
 Total energy in the final basis set = -1510.25151746
   11   -1510.2515707287      6.49E-09 Convergence criterion met
 Total energy in the final basis set = -1510.25157073
   11   -1510.2516088994      5.80E-09 Convergence criterion met
 Total energy in the final basis set = -1510.25160890
   11   -1510.2516290841      3.99E-09 Convergence criterion met
 Total energy in the final basis set = -1510.25162908
   10   -1510.2516367733      6.30E-09 Convergence criterion met
 Total energy in the final basis set = -1510.25163677
    9   -1510.2516387840      7.76E-09 Convergence criterion met
 Total energy in the final basis set = -1510.25163878

             Standard Nuclear Orientation (Angstroms)
    I     Atom           X                Y                Z
 ----------------------------------------------------------------
    1      O      -1.4902874824     1.1389826876     0.7075808135
    2      C      -2.4770401150     1.6624128371     0.1477291335
    3      C      -3.7944700450     0.9902730093    -0.3686330000
    4      C      -3.6411248751    -0.5242348913    -0.8071347466
    5      C      -2.3616974884    -1.2399635130    -0.2416725805
    6      O      -1.6075539328    -1.7449209149    -1.3569606397
    7      C      -0.6662925928    -2.7930552197    -0.9003772428
    8      C       0.6709630304    -2.1492033528    -0.3850236630
    9      O       1.3122340087    -1.5383970987    -1.5625132452
   10      C       2.7129402173    -1.2440238306    -1.4905808908
   11      C       3.6417067834    -1.3123772569    -0.1789201322
   12      C       4.3211168392     0.1067431558     0.0444380961
   13      C       3.3546726028     1.2651409705    -0.3985882447
   14      O       2.2731333760     1.1456341127    -1.0168264824
   15      O      -2.5738794398     3.0667680645    -0.1297732972
   16      O       3.8988343206     2.5170705634     0.0219411735
   17      O       3.2717899514    -0.9942938972    -2.5838647707
   18      C       2.9804903186     3.6164168163    -0.3563722708
   19      C       3.2377089426    -1.6619397543     1.3320057197
   20      C       4.5409614675    -2.2459291655     2.0131609906
   21      C       5.4235110856    -0.9505910901     2.1344101790
   22      C       4.4192419449     0.1535407081     1.6228181445
   23      O       3.0792622381    -0.3557198980     2.0084103595
   24      H       4.4323440085    -2.0236492054    -0.4820790834
   25      H       5.2961305086     0.2077238561    -0.4653784661
   26      H       2.3397318682    -2.2798102441     1.4909271560
   27      H       4.2935915920    -2.6559835419     3.0055858235
   28      H       5.0159411116    -3.0371396972     1.4115950594
   29      H       5.7213345067    -0.7547544132     3.1764340992
   30      H       6.3304395580    -0.9961193996     1.5104249473
   31      H       4.5796876511     1.1713601241     2.0277616217
   32      O      -2.1200689948    -1.5423747587     0.9466527445
   33      C      -1.3446312643     3.7531166786     0.3307576978
   34      C      -4.9719095448     0.8865830001     0.7038671050
   35      C      -6.3249652372     0.8327981515    -0.1072529473
   36      C      -6.2308515476    -0.6065827048    -0.7375170068
   37      C      -4.9040956230    -1.1526629289    -0.0725214731
   38      O      -4.8586160562    -0.4833604288     1.2484446617
   39      H      -4.1370213204     1.5991467135    -1.2240401518
   40      H      -3.6651051659    -0.6420902733    -1.9040831918
   41      H      -0.4413764527     3.3445542291    -0.1675894048
   42      H      -4.9330234262     1.6357526755     1.5184507006
   43      H      -7.1838957967     0.9153711290     0.5780697473
   44      H      -6.3957677121     1.6301279703    -0.8640946656
   45      H      -7.0915246973    -1.2324039085    -0.4533251831
   46      H      -6.1593637951    -0.5845687337    -1.8368244584
   47      H      -4.8591550019    -2.2519278843     0.0517505354
   48      H      -1.2110319618     3.6612791345     1.4282296913
   49      H      -1.4692621017     4.8177991490     0.0605616962
   50      H       3.4744837821     4.5511217375    -0.0333800635
   51      H       2.0001776940     3.5186653518     0.1537313235
   52      H       2.8069997009     3.6444940304    -1.4514998494
   53      H       0.4496638846    -1.3987358964     0.4056567731
   54      H       1.2917233177    -2.9637107315     0.0417528984
   55      H      -0.4608339567    -3.4302829922    -1.7839546213
   56      H      -1.1142947105    -3.3967980357    -0.0818747355
 ----------------------------------------------------------------

    9   -1510.2516395672      2.44E-09 Convergence criterion met
 Total energy in the final basis set = -1510.25163957
 Final energy is   -1510.25163956719
 **  OPTIMIZATION CONVERGED  **

                    Orbital Energies (a.u.)
 --------------------------------------------------------------

 Alpha MOs
 -- Occupied --
-18.940 -18.931 -18.922 -18.918 -18.888 -18.887 -18.883 -18.875
-18.865 -18.847 -10.101 -10.096 -10.089 -10.089 -10.069 -10.067
-10.067 -10.062 -10.060 -10.059 -10.059 -10.059 -10.037 -10.035
-10.034 -10.029 -10.021 -10.020 -10.020 -10.019  -1.016  -1.009
 -1.002  -0.989  -0.971  -0.970  -0.940  -0.934  -0.926  -0.917
 -0.761  -0.760  -0.723  -0.722  -0.710  -0.702  -0.698  -0.665
 -0.661  -0.607  -0.594  -0.581  -0.546  -0.543  -0.538  -0.536
 -0.515  -0.510  -0.485  -0.470  -0.463  -0.453  -0.448  -0.443
 -0.436  -0.433  -0.429  -0.416  -0.409  -0.408  -0.407  -0.399
 -0.389  -0.382  -0.375  -0.371  -0.360  -0.357  -0.348  -0.340
 -0.337  -0.335  -0.332  -0.329  -0.328  -0.325  -0.314  -0.310
 -0.309  -0.305  -0.303  -0.299  -0.296  -0.276  -0.273  -0.271
 -0.270  -0.256  -0.253  -0.244  -0.237  -0.233  -0.224  -0.181
 -0.175  -0.170  -0.157  -0.153  -0.150  -0.147  -0.144  -0.138
 -0.129

          Ground-State Mulliken Net Atomic Charges

     Atom                 Charge (a.u.)
  ----------------------------------------
      1 O                    -0.205356
      2 C                     0.208298
      3 C                    -0.080229
      4 C                    -0.078954
      5 C                     0.211162
      6 O                    -0.171284
      7 C                    -0.045250
      8 C                    -0.045139
      9 O                    -0.168707
     10 C                     0.214181
     11 C                    -0.088276
     12 C                    -0.075672
     13 C                     0.216413
     14 O                    -0.201326
     15 O                    -0.171414
     16 O                    -0.169437
     17 O                    -0.218061
     18 C                    -0.127535
     19 C                     0.018863
     20 C                    -0.142368
     21 C                    -0.145317
     22 C                     0.022662
     23 O                    -0.192363
     24 H                     0.081128
     25 H                     0.089607
     26 H                     0.083442
     27 H                     0.077627
     28 H                     0.072947
     29 H                     0.078402
     30 H                     0.074701
     31 H                     0.088325
     32 O                    -0.208496
     33 C                    -0.129351
     34 C                     0.026575
     35 C                    -0.142072
     36 C                    -0.145138
     37 C                     0.026633
     38 O                    -0.183895
     39 H                     0.086050
     40 H                     0.087884
     41 H                     0.090143
     42 H                     0.084392
     43 H                     0.077935
     44 H                     0.074672
     45 H                     0.078085
     46 H                     0.074454
     47 H                     0.082722
     48 H                     0.088352
     49 H                     0.088875
     50 H                     0.091230
     51 H                     0.088461
     52 H                     0.092294
     53 H                     0.099477
     54 H                     0.076809
     55 H                     0.092603
     56 H                     0.090235
  ----------------------------------------
  Sum of atomic charges =    -0.000000

                    Cartesian Multipole Moments
 -----------------------------------------------------------------
    Charge (ESU x 10^10)
                 0.0000
    Dipole Moment (Debye)
         X       0.0525      Y       0.5835      Z       0.7061
       Tot       0.9175
    Quadrupole Moments (Debye-Ang)
        XX    -140.6843     XY      -2.6701     YY    -140.1517
        XZ      14.9867     YZ      -0.1166     ZZ    -172.8446

 Total job time:  59.64s(wall), 2838.51s(cpu)
        *  Thank you very much for using Q-Chem.  Have a nice day.  *
