 Q-Chem 5.0, Q-Chem, Inc., Pleasanton, CA (2017)
 Q-Chem 5.0.1 for Intel X86 EM64T Linux

User input:
--------------------------------------------------------------
$molecule
0  1
O -1.4902874824 1.1389826876 0.7075808135
C -2.477040115 1.6624128371 0.1477291335
C -3.794470045 0.9902730093 -0.368633
C -3.6411248751 -0.5242348913 -0.8071347466
C -2.3616974884 -1.239963513 -0.2416725805
O -1.6075539328 -1.7449209149 -1.3569606397
C -0.6662925928 -2.7930552197 -0.9003772428
C 0.6709630304 -2.1492033528 -0.385023663
O 1.3122340087 -1.5383970987 -1.5625132452
C 2.7129402173 -1.2440238306 -1.4905808908
C 3.6417067834 -1.3123772569 -0.1789201322
C 4.3211168392 0.1067431558 0.0444380961
C 3.3546726028 1.2651409705 -0.3985882447
O 2.273133376 1.1456341127 -1.0168264824
O -2.5738794398 3.0667680645 -0.1297732972
O 3.8988343206 2.5170705634 0.0219411735
O 3.2717899514 -0.9942938972 -2.5838647707
C 2.9804903186 3.6164168163 -0.3563722708
C 3.2377089426 -1.6619397543 1.3320057197
C 4.5409614675 -2.2459291655 2.0131609906
C 5.4235110856 -0.9505910901 2.134410179
C 4.4192419449 0.1535407081 1.6228181445
O 3.0792622381 -0.355719898 2.0084103595
H 4.4323440085 -2.0236492054 -0.4820790834
H 5.2961305086 0.2077238561 -0.4653784661
H 2.3397318682 -2.2798102441 1.490927156
H 4.293591592 -2.6559835419 3.0055858235
H 5.0159411116 -3.0371396972 1.4115950594
H 5.7213345067 -0.7547544132 3.1764340992
H 6.330439558 -0.9961193996 1.5104249473
H 4.5796876511 1.1713601241 2.0277616217
O -2.1200689948 -1.5423747587 0.9466527445
C -1.3446312643 3.7531166786 0.3307576978
C -4.9719095448 0.8865830001 0.703867105
C -6.3249652372 0.8327981515 -0.1072529473
C -6.2308515476 -0.6065827048 -0.7375170068
C -4.904095623 -1.1526629289 -0.0725214731
O -4.8586160562 -0.4833604288 1.2484446617
H -4.1370213204 1.5991467135 -1.2240401518
H -3.6651051659 -0.6420902733 -1.9040831918
H -0.4413764527 3.3445542291 -0.1675894048
H -4.9330234262 1.6357526755 1.5184507006
H -7.1838957967 0.915371129 0.5780697473
H -6.3957677121 1.6301279703 -0.8640946656
H -7.0915246973 -1.2324039085 -0.4533251831
H -6.1593637951 -0.5845687337 -1.8368244584
H -4.8591550019 -2.2519278843 0.0517505354
H -1.2110319618 3.6612791345 1.4282296913
H -1.4692621017 4.817799149 0.0605616962
H 3.4744837821 4.5511217375 -0.0333800635
H 2.000177694 3.5186653518 0.1537313235
H 2.8069997009 3.6444940304 -1.4514998494
H 0.4496638846 -1.3987358964 0.4056567731
H 1.2917233177 -2.9637107315 0.0417528984
H -0.4608339567 -3.4302829922 -1.7839546213
H -1.1142947105 -3.3967980357 -0.0818747355
$end

$rem
JOBTYPE                   OPT
METHOD                    B3LYP
DFT_D                     d3_op
BASIS                     STO-3G
GEOM_OPT_MAX_CYCLES       100
GEOM_OPT_TOL_GRADIENT     300
GEOM_OPT_TOL_DISPLACEMENT 1200
GEOM_OPT_TOL_ENERGY       100
SYMMETRY                  False
THRESH                    12
SCF_CONVERGENCE           8
MAX_SUB_FILE_NUM          128
MEM_STATIC                400
MEM_TOTAL                 4000
$end
--------------------------------------------------------------

   16   -1510.2514400845      8.33E-09 Convergence criterion met
 Total energy in the final basis set = -1510.25144008
   14   -1510.2296923232      5.27E-09 Convergence criterion met
 Total energy in the final basis set = -1510.22969232
   14   -1510.2553614472      5.12E-09 Convergence criterion met
 Total energy in the final basis set = -1510.25536145
   14   -1510.2584174826      2.62E-09 Convergence criterion met
 Total energy in the final basis set = -1510.25841748
   14   -1510.2506238324      8.95E-09 Convergence criterion met
 Total energy in the final basis set = -1510.25062383
   14   -1510.2615231597      5.45E-09 Convergence criterion met
 Total energy in the final basis set = -1510.26152316
   14   -1510.2638406928      3.85E-09 Convergence criterion met
 Total energy in the final basis set = -1510.26384069
   14   -1510.2647707180      2.63E-09 Convergence criterion met
   10   -1510.2955662587      7.83E-09 Convergence criterion met
 Total energy in the final basis set = -1510.29556626
    9   -1510.2955650071      7.37E-09 Convergence criterion met
 Total energy in the final basis set = -1510.29556501
    9   -1510.2955642621      4.80E-09 Convergence criterion met
 Total energy in the final basis set = -1510.29556426
    9   -1510.2955632520      4.18E-09 Convergence criterion met
 Total energy in the final basis set = -1510.29556325
    8   -1510.2955643390      9.39E-09 Convergence criterion met
 Total energy in the final basis set = -1510.29556434
    9   -1510.2955654078      2.08E-09 Convergence criterion met
 Total energy in the final basis set = -1510.29556541

             Standard Nuclear Orientation (Angstroms)
    I     Atom           X                Y                Z
 ----------------------------------------------------------------
    1      O      -0.7297281433     0.2430208054    -0.5684551623
    2      C      -1.7113995577     0.9533154975    -0.2331703379
    3      C      -3.1777563110     0.4182251565    -0.1480151642
    4      C      -3.2099557111    -1.1551100860    -0.3158858896
    5      C      -1.8027170116    -1.8298120595    -0.5727871893
    6      O      -1.6335044358    -1.9448870716    -1.9977580193
    7      C      -0.4391715172    -2.7456592838    -2.3504653822
    8      C       0.9277666877    -2.1610302659    -1.8369691795
    9      O       1.0556029641    -0.7755655649    -2.3370773050
   10      C       1.6777835795     0.1580662832    -1.4505175017
   11      C       2.3946036923    -0.3456939981    -0.1327714499
   12      C       3.3460849661     0.7729334926     0.4662179385
   13      C       3.3680852061     2.1368830835    -0.3268969909
   14      O       2.8463976351     3.2182813129     0.0198242762
   15      O      -1.6288986313     2.3104217527     0.1337316512
   16      O       4.2918202961     1.9865618277    -1.4191231962
   17      O       1.7014649650     1.3549718722    -1.8288725196
   18      C       4.3034189490     3.2214570382    -2.2323608932
   19      C       1.4168215963    -0.5945865715     1.1043366689
   20      C       2.2183969145    -1.3932883662     2.2051164327
   21      C       3.1436316058    -0.2679151998     2.8022578076
   22      C       2.7319760242     0.9653524294     1.9113169179
   23      O       1.2781363770     0.7540291005     1.7027880556
   24      H       2.9724690653    -1.2575019886    -0.3658981269
   25      H       4.3840290880     0.3985593029     0.5164074704
   26      H       0.4204284005    -1.0156791160     0.8512027814
   27      H       1.5265253864    -1.7946263127     2.9626245784
   28      H       2.7905338957    -2.2291894199     1.7721085350
   29      H       2.9114520726    -0.0747427323     3.8616289506
   30      H       4.2158875145    -0.5039384522     2.7107745927
   31      H       2.9122439395     1.9662027494     2.3487753845
   32      O      -1.0594372271    -2.3725783144     0.2789298478
   33      C      -0.1973251031     2.7325145820     0.1543345627
   34      C      -3.7801015376     0.5840226205     1.3118612796
   35      C      -5.3311225813     0.2944090820     1.2491582013
   36      C      -5.3430681989    -1.2737158398     1.1101679577
   37      C      -3.7960013673    -1.5886560046     1.0941565874
   38      O      -3.2297307488    -0.5884644867     2.0295128741
   39      H      -3.7980295855     0.9298069055    -0.9064130598
   40      H      -3.8756850475    -1.4473073431    -1.1469392071
   41      H       0.2312408267     2.7282148719    -0.8689648267
   42      H      -3.4878015918     1.5269052924     1.8134921975
   43      H      -5.8222321978     0.6222592735     2.1790340804
   44      H      -5.8121515639     0.8013646441     0.3973415008
   45      H      -5.8237369449    -1.7517266190     1.9787016086
   46      H      -5.8476893556    -1.6171992514     0.1930920372
   47      H      -3.5126404999    -2.6113852937     1.4099739966
   48      H       0.4068507914     2.0358710712     0.7936446104
   49      H      -0.1938441889     3.7585627822     0.5619725092
   50      H       5.0756198476     3.0732218953    -3.0096037536
   51      H       4.5546709904     4.1133251210    -1.6223883110
   52      H       3.3191187202     3.3898798361    -2.7159373982
   53      H       0.9274697011    -2.2307349704    -0.7354020931
   54      H       1.7552520546    -2.7858840718    -2.2432029481
   55      H      -0.4425350818    -2.7826921706    -3.4584701845
   56      H      -0.5309978123    -3.7826634858    -1.9551843221
 ----------------------------------------------------------------

    8   -1510.2955665132      6.87E-09 Convergence criterion met
 Total energy in the final basis set = -1510.29556651
 Final energy is   -1510.29556651319
 **  OPTIMIZATION CONVERGED  **

                    Orbital Energies (a.u.)
 --------------------------------------------------------------

 Alpha MOs
 -- Occupied --
-18.936 -18.934 -18.925 -18.912 -18.901 -18.885 -18.878 -18.873
-18.858 -18.851 -10.104 -10.102 -10.097 -10.086 -10.074 -10.073
-10.060 -10.058 -10.057 -10.056 -10.048 -10.037 -10.037 -10.032
-10.030 -10.024 -10.020 -10.019 -10.018 -10.018  -1.015  -1.006
 -1.000  -0.990  -0.975  -0.968  -0.936  -0.934  -0.927  -0.918
 -0.762  -0.761  -0.723  -0.719  -0.713  -0.703  -0.699  -0.649
 -0.643  -0.608  -0.596  -0.583  -0.546  -0.541  -0.537  -0.535
 -0.514  -0.505  -0.484  -0.468  -0.455  -0.452  -0.452  -0.447
 -0.438  -0.430  -0.429  -0.413  -0.402  -0.401  -0.397  -0.394
 -0.389  -0.380  -0.372  -0.366  -0.358  -0.355  -0.349  -0.344
 -0.338  -0.334  -0.330  -0.327  -0.325  -0.322  -0.316  -0.310
 -0.309  -0.304  -0.302  -0.298  -0.294  -0.277  -0.271  -0.270
 -0.268  -0.256  -0.247  -0.241  -0.237  -0.233  -0.230  -0.178
 -0.172  -0.166  -0.158  -0.152  -0.149  -0.146  -0.143  -0.142
 -0.135

          Ground-State Mulliken Net Atomic Charges

     Atom                 Charge (a.u.)
  ----------------------------------------
      1 O                    -0.215970
      2 C                     0.222149
      3 C                    -0.078089
      4 C                    -0.081487
      5 C                     0.220052
      6 O                    -0.171435
      7 C                    -0.044001
      8 C                    -0.051912
      9 O                    -0.164698
     10 C                     0.230667
     11 C                    -0.083957
     12 C                    -0.082034
     13 C                     0.217148
     14 O                    -0.225640
     15 O                    -0.166100
     16 O                    -0.178427
     17 O                    -0.204977
     18 C                    -0.128594
     19 C                     0.019314
     20 C                    -0.143746
     21 C                    -0.143624
     22 C                     0.026074
     23 O                    -0.185668
     24 H                     0.079373
     25 H                     0.083293
     26 H                     0.108177
     27 H                     0.082524
     28 H                     0.071794
     29 H                     0.079214
     30 H                     0.073815
     31 H                     0.090449
     32 O                    -0.238384
     33 C                    -0.150542
     34 C                     0.024435
     35 C                    -0.143857
     36 C                    -0.144052
     37 C                     0.024664
     38 O                    -0.189689
     39 H                     0.087592
     40 H                     0.084255
     41 H                     0.093498
     42 H                     0.089818
     43 H                     0.078200
     44 H                     0.073817
     45 H                     0.077602
     46 H                     0.073130
     47 H                     0.085451
     48 H                     0.117414
     49 H                     0.083724
     50 H                     0.084800
     51 H                     0.085553
     52 H                     0.091489
     53 H                     0.102819
     54 H                     0.079727
     55 H                     0.091455
     56 H                     0.083397
  ----------------------------------------
  Sum of atomic charges =     0.000000

                    Cartesian Multipole Moments
 -----------------------------------------------------------------
    Charge (ESU x 10^10)
                 0.0000
    Dipole Moment (Debye)
         X      -0.1157      Y      -2.7140      Z      -0.1828
       Tot       2.7226
    Quadrupole Moments (Debye-Ang)
        XX    -141.2537     XY      -2.7815     YY    -157.3647
        XZ       3.2050     YZ       3.2947     ZZ    -162.1897

 Total job time:  203.30s(wall), 9704.31s(cpu)
        *  Thank you very much for using Q-Chem.  Have a nice day.  *
