 Q-Chem 5.0, Q-Chem, Inc., Pleasanton, CA (2017)
 Q-Chem 5.0.1 for Intel X86 EM64T Linux

User input:
--------------------------------------------------------------
$molecule
0  1
O -3.94934 -3.66094 2.70899
C -3.26408 -4.56952 2.26188
C -3.36658 -6.02376 2.66595
C -4.77372 -6.64113 2.71769
C -5.90468 -5.78727 2.1886
O -6.80351 -6.56947 1.52101
C -7.9075 -5.82981 0.98867
C -7.74569 -5.65525 -0.5178
O -8.26843 -6.80446 -1.20259
C -8.18098 -6.76689 -2.5554
C -7.01747 -5.93912 -3.04702
C -6.30054 -6.50033 -4.28368
C -7.0449 -7.57738 -5.04697
O -8.26047 -7.6948 -5.10318
O -2.42585 -4.27905 1.23048
O -6.27234 -8.55298 -5.59304
O -9.22798 -6.9163 -3.16111
C -6.76568 -9.64111 -6.28208
C -7.4253 -4.53983 -3.5559
C -6.22134 -3.60149 -3.50502
C -5.38581 -4.15919 -4.63933
C -6.33349 -5.24036 -5.17343
O -7.61478 -4.71459 -4.93589
H -6.15501 -5.90846 -2.36743
H -5.24886 -6.83816 -4.12799
H -8.28437 -4.09944 -3.00723
H -6.58053 -2.58761 -3.79342
H -5.71045 -3.54523 -2.51954
H -5.24592 -3.35718 -5.39788
H -4.40059 -4.5802 -4.34346
H -6.0954 -5.47087 -6.23607
O -6.19585 -4.71441 2.7016
C -2.25883 -3.02189 0.68798
C -2.63766 -7.01097 1.73069
C -2.28039 -8.2849 2.49305
C -3.64501 -8.9168 2.6376
C -4.50429 -7.9118 1.86266
O -3.64479 -7.44497 0.8516
H -2.90582 -6.05666 3.67876
H -5.06539 -6.91497 3.75632
H -1.88456 -2.31787 1.46163
H -1.71831 -6.59975 1.26173
H -1.66616 -8.92107 1.81595
H -1.72873 -8.11986 3.44354
H -3.63339 -9.89567 2.10758
H -3.99744 -9.05865 3.68209
H -5.41894 -8.43815 1.51763
H -3.22226 -2.6518 0.2764
H -1.51696 -3.07669 -0.13488
H -5.91854 -10.27321 -6.61866
H -7.33584 -9.30243 -7.17355
H -7.42379 -10.24625 -5.62251
H -8.38445 -4.79181 -0.80933
H -6.68563 -5.36644 -0.5979
H -7.99612 -4.79737 1.39439
H -8.87328 -6.31373 1.24713
$end

$opt
CONSTRAINT
tors           1           2           3           4     +47.368
tors           3           4           5           6    +142.105
tors           4           5           6           7    -180.000
tors           5           6           7           8    +104.211
tors           6           7           8           9     +85.263
tors           7           8           9          10    -180.000
tors           8           9          10          11     +28.421
tors           9          10          11          12    +142.105
tors          11          12          13          14     +28.421
ENDCONSTRAINT
$end

$rem
JOBTYPE                   OPT
METHOD                    B3LYP
DFT_D                     d3_op
BASIS                     STO-3G
GEOM_OPT_MAX_CYCLES       100
GEOM_OPT_TOL_GRADIENT     300
GEOM_OPT_TOL_DISPLACEMENT 1200
GEOM_OPT_TOL_ENERGY       100
SYMMETRY                  False
THRESH                    12
SCF_CONVERGENCE           8
MAX_SUB_FILE_NUM          128
MEM_STATIC                400
MEM_TOTAL                 4000
$end
--------------------------------------------------------------

   15   -1510.0860555195      8.41E-09 Convergence criterion met
 Total energy in the final basis set = -1510.08605552
   14   -1510.1626247837      8.54E-09 Convergence criterion met
 Total energy in the final basis set = -1510.16262478
   14   -1510.2047628541      7.23E-09 Convergence criterion met
 Total energy in the final basis set = -1510.20476285
   14   -1510.2285106543      7.77E-09 Convergence criterion met
 Total energy in the final basis set = -1510.22851065
   14   -1510.2400947989      5.03E-09 Convergence criterion met
 Total energy in the final basis set = -1510.24009480
    2   -1510.2400947989      2.03E-09 Convergence criterion met
 Total energy in the final basis set = -1510.24009480
   14   -1510.2460568239      3.50E-09 Convergence criterion met
 Total energy in the final basis set = -1510.24605682
   13   -1510.2494286331      9.61E-09 Convergence criterion met
   12   -1510.2523979603      9.00E-09 Convergence criterion met
 Total energy in the final basis set = -1510.25239796
   12   -1510.2525623428      6.00E-09 Convergence criterion met
 Total energy in the final basis set = -1510.25256234
   11   -1510.2525734668      3.57E-09 Convergence criterion met
 Total energy in the final basis set = -1510.25257347
   11   -1510.2525780145      2.31E-09 Convergence criterion met
 Total energy in the final basis set = -1510.25257801
    9   -1510.2525838885      5.50E-09 Convergence criterion met
 Total energy in the final basis set = -1510.25258389
    9   -1510.2525850622      5.78E-09 Convergence criterion met
 Total energy in the final basis set = -1510.25258506

             Standard Nuclear Orientation (Angstroms)
    I     Atom           X                Y                Z
 ----------------------------------------------------------------
    1      O      -5.0654441701    -1.8912940687     0.3623151015
    2      C      -4.6507693899    -1.1331228572    -0.5392824511
    3      C      -4.5143938684     0.4324519294    -0.4898435004
    4      C      -3.8197024248     1.0691008284     0.7928277737
    5      C      -2.9676200034     0.0829507760     1.6817076314
    6      O      -1.8042899070     0.7850539042     2.1498813747
    7      C      -0.9714535777    -0.1042248331     2.9915396291
    8      C       0.2880660178    -0.5774859408     2.1829376475
    9      O       1.3133111928     0.4739799624     2.3398413580
   10      C       2.5669675502     0.2227046475     1.6596957537
   11      C       2.5514734109    -0.6646727327     0.3518501973
   12      C       3.5410170227    -0.2101105011    -0.7999484660
   13      C       4.1069904299     1.2540067395    -0.8066341847
   14      O       4.3313795020     2.0614287057     0.1173062250
   15      O      -4.2303769480    -1.6020488734    -1.8293279681
   16      O       4.3919933101     1.5447579027    -2.1876863668
   17      O       3.5906592343     0.7354104878     2.1566951198
   18      C       4.9857769713     2.8952722431    -2.3072666154
   19      C       3.1934059325    -2.0754617908     0.7211943146
   20      C       3.0101530505    -3.0849605150    -0.4825042207
   21      C       4.1410672032    -2.6032696388    -1.4660885532
   22      C       4.6741893182    -1.3334508744    -0.6970798760
   23      O       4.6407518845    -1.7648771848     0.7168634766
   24      H       1.5306600737    -0.7596934927    -0.0496456530
   25      H       3.0232277314    -0.3195064327    -1.7697730018
   26      H       2.8895857797    -2.4714207627     1.7097838599
   27      H       3.1772360118    -4.1203061935    -0.1458420915
   28      H       2.0038078752    -3.0185865167    -0.9269319093
   29      H       4.9389793882    -3.3574736792    -1.5595792003
   30      H       3.7620835430    -2.3584506936    -2.4710135428
   31      H       5.6907509909    -0.9971638351    -0.9788643366
   32      O      -3.2187566486    -1.0990919859     2.0002358006
   33      C      -4.3775352254    -3.0732874561    -1.9021160446
   34      C      -3.6585038579     1.0825788402    -1.6630904296
   35      C      -4.2136439416     2.5381112100    -1.9059990166
   36      C      -3.7223845223     3.2588753556    -0.5962639587
   37      C      -2.8626751786     2.1205689106     0.0843903397
   38      O      -2.3324331785     1.3314148223    -1.0538575132
   39      H      -5.5512138273     0.8168263581    -0.5413620212
   40      H      -4.5686311671     1.5540441232     1.4461795886
   41      H      -5.4409787045    -3.3817478268    -1.8327825231
   42      H      -3.5674958314     0.4396908299    -2.5590358627
   43      H      -3.7516960827     2.9786593583    -2.8042529185
   44      H      -5.3087854894     2.5594459346    -2.0242428040
   45      H      -3.0937117572     4.1339605711    -0.8242949668
   46      H      -4.5565174690     3.5830642580     0.0466006698
   47      H      -2.0364551267     2.4685018863     0.7322756002
   48      H      -3.8130019936    -3.5808313026    -1.0936255617
   49      H      -3.9707285351    -3.3724873840    -2.8856808495
   50      H       5.1714027869     3.0530401475    -3.3857088587
   51      H       5.9424390732     2.9742233273    -1.7511934005
   52      H       4.2975230214     3.6796122471    -1.9310161544
   53      H       0.6498507909    -1.5483294754     2.5908539815
   54      H      -0.0184182486    -0.7376827763     1.1263453213
   55      H      -1.5815796508    -0.9864133398     3.2852547545
   56      H      -0.6530902506     0.4716138242     3.8842050373
 ----------------------------------------------------------------

    9   -1510.2525860540      2.35E-09 Convergence criterion met
 Total energy in the final basis set = -1510.25258605
 Final energy is   -1510.25258605404
 **  OPTIMIZATION CONVERGED  **

                    Orbital Energies (a.u.)
 --------------------------------------------------------------

 Alpha MOs
 -- Occupied --
-18.935 -18.934 -18.926 -18.919 -18.892 -18.886 -18.883 -18.877
-18.876 -18.876 -10.103 -10.099 -10.094 -10.093 -10.077 -10.071
-10.066 -10.064 -10.062 -10.060 -10.058 -10.057 -10.043 -10.039
-10.038 -10.036 -10.024 -10.022 -10.021 -10.020  -1.018  -1.010
 -1.006  -0.996  -0.973  -0.971  -0.943  -0.934  -0.932  -0.926
 -0.764  -0.763  -0.727  -0.722  -0.715  -0.708  -0.699  -0.662
 -0.659  -0.613  -0.600  -0.584  -0.546  -0.545  -0.541  -0.538
 -0.518  -0.515  -0.486  -0.472  -0.465  -0.460  -0.452  -0.448
 -0.436  -0.434  -0.425  -0.418  -0.412  -0.410  -0.407  -0.407
 -0.397  -0.383  -0.374  -0.373  -0.368  -0.353  -0.351  -0.346
 -0.341  -0.339  -0.333  -0.331  -0.329  -0.327  -0.315  -0.314
 -0.311  -0.309  -0.307  -0.297  -0.297  -0.287  -0.281  -0.278
 -0.275  -0.257  -0.252  -0.247  -0.238  -0.235  -0.234  -0.182
 -0.178  -0.173  -0.166  -0.166  -0.157  -0.147  -0.146  -0.142
 -0.129

          Ground-State Mulliken Net Atomic Charges

     Atom                 Charge (a.u.)
  ----------------------------------------
      1 O                    -0.201576
      2 C                     0.206650
      3 C                    -0.080744
      4 C                    -0.075710
      5 C                     0.207685
      6 O                    -0.173245
      7 C                    -0.052644
      8 C                    -0.046217
      9 O                    -0.176391
     10 C                     0.207544
     11 C                    -0.084315
     12 C                    -0.079135
     13 C                     0.206637
     14 O                    -0.198180
     15 O                    -0.173061
     16 O                    -0.175279
     17 O                    -0.178689
     18 C                    -0.129619
     19 C                     0.024753
     20 C                    -0.145334
     21 C                    -0.142130
     22 C                     0.027505
     23 O                    -0.184293
     24 H                     0.079682
     25 H                     0.086114
     26 H                     0.079379
     27 H                     0.078491
     28 H                     0.072979
     29 H                     0.078557
     30 H                     0.075403
     31 H                     0.085610
     32 O                    -0.207069
     33 C                    -0.128400
     34 C                     0.021229
     35 C                    -0.142926
     36 C                    -0.145722
     37 C                     0.021577
     38 O                    -0.195347
     39 H                     0.083267
     40 H                     0.087114
     41 H                     0.087920
     42 H                     0.093019
     43 H                     0.077502
     44 H                     0.072724
     45 H                     0.078641
     46 H                     0.073080
     47 H                     0.096709
     48 H                     0.091345
     49 H                     0.089220
     50 H                     0.088241
     51 H                     0.088431
     52 H                     0.088702
     53 H                     0.079176
     54 H                     0.082349
     55 H                     0.101733
     56 H                     0.097061
  ----------------------------------------
  Sum of atomic charges =    -0.000000

                    Cartesian Multipole Moments
 -----------------------------------------------------------------
    Charge (ESU x 10^10)
                 0.0000
    Dipole Moment (Debye)
         X      -2.5876      Y      -0.9341      Z      -3.5545
       Tot       4.4948
    Quadrupole Moments (Debye-Ang)
        XX    -164.7914     XY     -10.9387     YY    -152.1648
        XZ      -8.0909     YZ      -1.3407     ZZ    -159.9995

 Total job time:  104.63s(wall), 4988.44s(cpu)
        *  Thank you very much for using Q-Chem.  Have a nice day.  *
