 Q-Chem 5.0, Q-Chem, Inc., Pleasanton, CA (2017)
 Q-Chem 5.0.1 for Intel X86 EM64T Linux

User input:
--------------------------------------------------------------
$molecule
0  1
O -5.0654441701 -1.8912940687 0.3623151015
C -4.6507693899 -1.1331228572 -0.5392824511
C -4.5143938684 0.4324519294 -0.4898435004
C -3.8197024248 1.0691008284 0.7928277737
C -2.9676200034 0.082950776 1.6817076314
O -1.804289907 0.7850539042 2.1498813747
C -0.9714535777 -0.1042248331 2.9915396291
C 0.2880660178 -0.5774859408 2.1829376475
O 1.3133111928 0.4739799624 2.339841358
C 2.5669675502 0.2227046475 1.6596957537
C 2.5514734109 -0.6646727327 0.3518501973
C 3.5410170227 -0.2101105011 -0.799948466
C 4.1069904299 1.2540067395 -0.8066341847
O 4.331379502 2.0614287057 0.117306225
O -4.230376948 -1.6020488734 -1.8293279681
O 4.3919933101 1.5447579027 -2.1876863668
O 3.5906592343 0.7354104878 2.1566951198
C 4.9857769713 2.8952722431 -2.3072666154
C 3.1934059325 -2.0754617908 0.7211943146
C 3.0101530505 -3.084960515 -0.4825042207
C 4.1410672032 -2.6032696388 -1.4660885532
C 4.6741893182 -1.3334508744 -0.697079876
O 4.6407518845 -1.7648771848 0.7168634766
H 1.5306600737 -0.7596934927 -0.049645653
H 3.0232277314 -0.3195064327 -1.7697730018
H 2.8895857797 -2.4714207627 1.7097838599
H 3.1772360118 -4.1203061935 -0.1458420915
H 2.0038078752 -3.0185865167 -0.9269319093
H 4.9389793882 -3.3574736792 -1.5595792003
H 3.762083543 -2.3584506936 -2.4710135428
H 5.6907509909 -0.9971638351 -0.9788643366
O -3.2187566486 -1.0990919859 2.0002358006
C -4.3775352254 -3.0732874561 -1.9021160446
C -3.6585038579 1.0825788402 -1.6630904296
C -4.2136439416 2.53811121 -1.9059990166
C -3.7223845223 3.2588753556 -0.5962639587
C -2.8626751786 2.1205689106 0.0843903397
O -2.3324331785 1.3314148223 -1.0538575132
H -5.5512138273 0.8168263581 -0.5413620212
H -4.5686311671 1.5540441232 1.4461795886
H -5.4409787045 -3.3817478268 -1.8327825231
H -3.5674958314 0.4396908299 -2.5590358627
H -3.7516960827 2.9786593583 -2.8042529185
H -5.3087854894 2.5594459346 -2.024242804
H -3.0937117572 4.1339605711 -0.8242949668
H -4.556517469 3.583064258 0.0466006698
H -2.0364551267 2.4685018863 0.7322756002
H -3.8130019936 -3.5808313026 -1.0936255617
H -3.9707285351 -3.372487384 -2.8856808495
H 5.1714027869 3.0530401475 -3.3857088587
H 5.9424390732 2.9742233273 -1.7511934005
H 4.2975230214 3.6796122471 -1.9310161544
H 0.6498507909 -1.5483294754 2.5908539815
H -0.0184182486 -0.7376827763 1.1263453213
H -1.5815796508 -0.9864133398 3.2852547545
H -0.6530902506 0.4716138242 3.8842050373
$end

$rem
JOBTYPE                   OPT
METHOD                    B3LYP
DFT_D                     d3_op
BASIS                     STO-3G
GEOM_OPT_MAX_CYCLES       100
GEOM_OPT_TOL_GRADIENT     300
GEOM_OPT_TOL_DISPLACEMENT 1200
GEOM_OPT_TOL_ENERGY       100
SYMMETRY                  False
THRESH                    12
SCF_CONVERGENCE           8
MAX_SUB_FILE_NUM          128
MEM_STATIC                400
MEM_TOTAL                 4000
$end
--------------------------------------------------------------

   16   -1510.2519977379      6.14E-09 Convergence criterion met
 Total energy in the final basis set = -1510.25199774
   14   -1510.2533241971      8.38E-09 Convergence criterion met
 Total energy in the final basis set = -1510.25332420
   14   -1510.2547622611      3.49E-09 Convergence criterion met
 Total energy in the final basis set = -1510.25476226
   14   -1510.2562675392      3.73E-09 Convergence criterion met
 Total energy in the final basis set = -1510.25626754
   14   -1510.2580732235      5.82E-09 Convergence criterion met
 Total energy in the final basis set = -1510.25807322
   14   -1510.2467814173      7.42E-09 Convergence criterion met
 Total energy in the final basis set = -1510.24678142
   13   -1510.2590660945      8.85E-09 Convergence criterion met
 Total energy in the final basis set = -1510.25906609
   13   -1510.2616844491      6.05E-09 Convergence criterion met
   11   -1510.2901767769      4.95E-09 Convergence criterion met
 Total energy in the final basis set = -1510.29017678
   11   -1510.2901760474      4.98E-09 Convergence criterion met
 Total energy in the final basis set = -1510.29017605
   11   -1510.2901790673      5.58E-09 Convergence criterion met
 Total energy in the final basis set = -1510.29017907
   11   -1510.2901862796      6.40E-09 Convergence criterion met
 Total energy in the final basis set = -1510.29018628
   11   -1510.2901828579      5.55E-09 Convergence criterion met
 Total energy in the final basis set = -1510.29018286
    9   -1510.2901805783      9.37E-09 Convergence criterion met
 Total energy in the final basis set = -1510.29018058

             Standard Nuclear Orientation (Angstroms)
    I     Atom           X                Y                Z
 ----------------------------------------------------------------
    1      O       5.4136237195    -0.5688489353     0.9144807868
    2      C       4.3967435538     0.1048606042     1.1888584458
    3      C       3.9096091198     1.4053315584     0.4434694070
    4      C       2.9081874199     1.1166960146    -0.7537579978
    5      C       2.5423836616    -0.3933688502    -0.9156357654
    6      O       1.8471311155    -0.5454129760    -2.1548985122
    7      C       1.2844308692    -1.9115519138    -2.2676701601
    8      C      -0.1654824424    -1.9489467356    -1.6712635037
    9      O      -0.9799283249    -1.0552558607    -2.5171559340
   10      C      -2.2683849751    -0.6957365253    -1.9739622351
   11      C      -2.8391662044    -1.5207639725    -0.7424643269
   12      C      -2.5163458214    -0.9275522557     0.6888487105
   13      C      -1.7154043543     0.4215702328     0.6143906183
   14      O      -1.1322275295     0.8643701896    -0.4068133328
   15      O       3.5427675397    -0.1427421880     2.3124460503
   16      O      -1.7782868427     1.0624014800     1.8736023355
   17      O      -2.9394244016     0.1400389012    -2.6159870412
   18      C      -1.0456538056     2.3575354118     1.8625622579
   19      C      -4.4275298801    -1.4465394314    -0.7368100657
   20      C      -4.9712167719    -2.6267615008     0.1610076482
   21      C      -4.6236013598    -2.0941119902     1.6010481872
   22      C      -3.9787640658    -0.6932463814     1.2609661994
   23      O      -4.7256357723    -0.2390572896     0.0668610510
   24      H      -2.5043725937    -2.5692425437    -0.8139521287
   25      H      -1.9459135598    -1.6413927971     1.3121251993
   26      H      -4.8790034625    -1.3576727523    -1.7436474656
   27      H      -6.0583577838    -2.7430594293     0.0258820003
   28      H      -4.4813849070    -3.5865105628    -0.0686197205
   29      H      -5.5292561583    -1.9623377481     2.2142157142
   30      H      -3.9242731142    -2.7517080069     2.1419643962
   31      H      -4.0233474821     0.0638815355     2.0676333667
   32      O       2.7698752320    -1.3271501009    -0.1130353026
   33      C       3.9332270365    -1.4123287197     2.9629525764
   34      C       3.0174729752     2.3412215821     1.3609287681
   35      C       2.9026111690     3.7642671739     0.6864266759
   36      C       1.9034946992     3.4680239315    -0.4932780155
   37      C       1.6256923297     1.9309052332    -0.2901113989
   38      O       1.6638336258     1.7633350895     1.1826222455
   39      H       4.8074129391     1.9312600980     0.0730294494
   40      H       3.2948412900     1.4919511782    -1.7180478466
   41      H       4.9928162354    -1.3982522479     3.2912689717
   42      H       3.3004872179     2.3408490104     2.4307426719
   43      H       2.4843649819     4.4940924271     1.3979096007
   44      H       3.8793973933     4.1330401300     0.3351818908
   45      H       0.9697468425     4.0432853807    -0.3876587688
   46      H       2.3370099672     3.6810238431    -1.4831340342
   47      H       0.6443289112     1.5584851479    -0.6644379901
   48      H       3.7865266008    -2.2717238679     2.2769900608
   49      H       3.2725059355    -1.5225329038     3.8424205250
   50      H      -1.2510203874     2.8161455279     2.8465133979
   51      H      -1.4329244470     3.0171600946     1.0604486145
   52      H       0.0575958857     2.1972440893     1.7225805839
   53      H      -0.5381983880    -2.9985396623    -1.6975549126
   54      H      -0.1343375645    -1.6113506236    -0.6135004712
   55      H       1.9272947564    -2.6396637335    -1.7271465872
   56      H       1.2550865854    -2.1516100454    -3.3493776890
 ----------------------------------------------------------------

    9   -1510.2901806313      2.81E-09 Convergence criterion met
 Total energy in the final basis set = -1510.29018063
 Final energy is   -1510.29018063130
 **  OPTIMIZATION CONVERGED  **

                    Orbital Energies (a.u.)
 --------------------------------------------------------------

 Alpha MOs
 -- Occupied --
-18.943 -18.941 -18.924 -18.920 -18.903 -18.887 -18.885 -18.885
-18.861 -18.859 -10.109 -10.107 -10.092 -10.091 -10.078 -10.077
-10.065 -10.060 -10.057 -10.056 -10.055 -10.042 -10.041 -10.041
-10.037 -10.034 -10.023 -10.021 -10.021 -10.020  -1.021  -1.017
 -1.001  -0.993  -0.979  -0.970  -0.945  -0.943  -0.926  -0.925
 -0.766  -0.763  -0.728  -0.723  -0.717  -0.705  -0.703  -0.656
 -0.653  -0.615  -0.597  -0.583  -0.549  -0.546  -0.540  -0.538
 -0.513  -0.511  -0.489  -0.479  -0.466  -0.461  -0.456  -0.445
 -0.437  -0.434  -0.431  -0.417  -0.409  -0.406  -0.405  -0.398
 -0.394  -0.387  -0.381  -0.372  -0.364  -0.358  -0.355  -0.350
 -0.342  -0.338  -0.335  -0.331  -0.327  -0.324  -0.317  -0.313
 -0.310  -0.306  -0.304  -0.303  -0.295  -0.284  -0.280  -0.278
 -0.276  -0.260  -0.255  -0.245  -0.236  -0.236  -0.233  -0.183
 -0.182  -0.166  -0.163  -0.162  -0.158  -0.153  -0.144  -0.142
 -0.136

          Ground-State Mulliken Net Atomic Charges

     Atom                 Charge (a.u.)
  ----------------------------------------
      1 O                    -0.220473
      2 C                     0.213668
      3 C                    -0.080467
      4 C                    -0.078230
      5 C                     0.213814
      6 O                    -0.164283
      7 C                    -0.047235
      8 C                    -0.045822
      9 O                    -0.171659
     10 C                     0.214816
     11 C                    -0.087990
     12 C                    -0.080352
     13 C                     0.218296
     14 O                    -0.213348
     15 O                    -0.169995
     16 O                    -0.166269
     17 O                    -0.206465
     18 C                    -0.151221
     19 C                     0.026184
     20 C                    -0.144348
     21 C                    -0.144381
     22 C                     0.024638
     23 O                    -0.187960
     24 H                     0.074929
     25 H                     0.083523
     26 H                     0.089850
     27 H                     0.078532
     28 H                     0.071409
     29 H                     0.078606
     30 H                     0.072410
     31 H                     0.090292
     32 O                    -0.213319
     33 C                    -0.127168
     34 C                     0.028303
     35 C                    -0.145327
     36 C                    -0.144393
     37 C                     0.014179
     38 O                    -0.191147
     39 H                     0.084377
     40 H                     0.090188
     41 H                     0.086640
     42 H                     0.089876
     43 H                     0.077392
     44 H                     0.075503
     45 H                     0.079265
     46 H                     0.077094
     47 H                     0.113252
     48 H                     0.092058
     49 H                     0.086673
     50 H                     0.082344
     51 H                     0.080865
     52 H                     0.119367
     53 H                     0.076704
     54 H                     0.083706
     55 H                     0.096992
     56 H                     0.096107
  ----------------------------------------
  Sum of atomic charges =    -0.000000

                    Cartesian Multipole Moments
 -----------------------------------------------------------------
    Charge (ESU x 10^10)
                -0.0000
    Dipole Moment (Debye)
         X       0.7565      Y      -1.3939      Z       2.3551
       Tot       2.8393
    Quadrupole Moments (Debye-Ang)
        XX    -171.5175     XY      16.0610     YY    -143.4285
        XZ      -6.8530     YZ       4.4386     ZZ    -162.8759

 Total job time:  143.56s(wall), 6843.58s(cpu)
        *  Thank you very much for using Q-Chem.  Have a nice day.  *
