 Q-Chem 5.0, Q-Chem, Inc., Pleasanton, CA (2017)
 Q-Chem 5.0.1 for Intel X86 EM64T Linux

User input:
--------------------------------------------------------------
$molecule
0  1
O 5.1310680708 -1.26157107 1.6750764168
C 4.8618879418 -0.2930495209 0.9308480206
C 4.5429428472 -0.3724420483 -0.6112006075
C 3.0190484205 -0.6851263322 -0.9350644031
C 2.1407067789 -0.8750071699 0.3615739678
O 1.1180577895 -1.8932171246 0.3157611091
C 0.3030194759 -1.8225728916 -0.9186625883
C -1.03669532 -2.6116001148 -0.6484421427
O -2.2218601968 -1.7544702584 -0.4175335479
C -1.9352763333 -0.6979056532 0.5313080802
C -2.6599216456 0.6282771344 0.1040768027
C -3.9976601218 0.5035470963 -0.7186323271
C -4.880279038 -0.7469912906 -0.3529887107
O -5.9780709802 -1.0491122246 -0.8727900999
O 4.8789780535 1.0756098151 1.3462066102
O -4.3756193638 -1.3470531966 0.8446085631
O -1.1535395244 -0.816000335 1.4967390416
C -5.2297865848 -2.4789269521 1.2659744436
C -3.0791207532 1.6285780755 1.2669720857
C -2.8957915139 3.0842780878 0.6898075247
C -4.0325025621 3.0993974161 -0.4013241898
C -4.7849397943 1.7421378823 -0.0936918232
O -4.5545945974 1.5131008004 1.3545137735
H -1.9162335375 1.1404541981 -0.5383970818
H -3.8537017297 0.5688272692 -1.8109968072
H -2.6035520099 1.4238825273 2.2458908404
H -3.0858439303 3.8334291882 1.4751325742
H -1.8915088286 3.2542303325 0.2699959792
H -4.7112156681 3.9572063585 -0.2740100733
H -3.6315161331 3.1176016053 -1.4277343679
H -5.8691526851 1.7430752192 -0.3200229526
O 2.3957025573 -0.3402202235 1.4629527737
C 5.0784259427 1.1484705969 2.8107235246
C 4.7260500288 1.0142799544 -1.3576493492
C 4.7606183126 0.7504210733 -2.9166243726
C 3.2398841657 0.4751547597 -3.2156303642
C 2.6210040502 0.6144232376 -1.7687620797
O 3.4230220377 1.6880432815 -1.1480761979
H 5.1881285286 -1.1588076054 -1.0424248555
H 2.9336489239 -1.5918296066 -1.5580925581
H 6.0161648636 0.6447187553 3.1225811034
H 5.5500298151 1.6388120968 -0.9639615394
H 5.1215140273 1.6431483731 -3.4514183308
H 5.4059211217 -0.1032626873 -3.1784218026
H 2.8153051763 1.2361329034 -3.8898045336
H 3.0627331393 -0.5214054437 -3.6506621953
H 1.5451874347 0.8746263782 -1.7417760128
H 4.2280615434 0.6834084679 3.3502736457
H 5.1320003438 2.2244144313 3.0586916081
H -4.6766339264 -3.4289749498 1.1242690996
H -6.1563885383 -2.485676498 0.6567680522
H -5.4713978661 -2.3498461708 2.3384156318
H -1.3023290821 -3.2243612316 -1.5335263953
H -0.8544712262 -3.2937548091 0.2135765617
H 0.8354849051 -2.2949131695 -1.7753459378
H 0.0669749615 -0.7755932951 -1.2056135956
$end

$rem
JOBTYPE                   OPT
METHOD                    B3LYP
DFT_D                     d3_op
BASIS                     STO-3G
GEOM_OPT_MAX_CYCLES       100
GEOM_OPT_TOL_GRADIENT     300
GEOM_OPT_TOL_DISPLACEMENT 1200
GEOM_OPT_TOL_ENERGY       100
SYMMETRY                  False
THRESH                    12
SCF_CONVERGENCE           8
MAX_SUB_FILE_NUM          128
MEM_STATIC                400
MEM_TOTAL                 4000
$end
--------------------------------------------------------------

   16   -1510.2493616274      4.34E-09 Convergence criterion met
 Total energy in the final basis set = -1510.24936163
   13   -1510.2538303031      3.62E-09 Convergence criterion met
 Total energy in the final basis set = -1510.25383030
   13   -1510.2577461879      6.99E-09 Convergence criterion met
 Total energy in the final basis set = -1510.25774619
   13   -1510.2612424748      4.50E-09 Convergence criterion met
 Total energy in the final basis set = -1510.26124247
   13   -1510.2644128257      4.35E-09 Convergence criterion met
 Total energy in the final basis set = -1510.26441283
   13   -1510.2669781715      6.91E-09 Convergence criterion met
 Total energy in the final basis set = -1510.26697817
   13   -1510.2689355391      5.65E-09 Convergence criterion met
 Total energy in the final basis set = -1510.26893554
   13   -1510.2703014848      6.44E-09 Convergence criterion met
   12   -1510.2784485136      7.70E-09 Convergence criterion met
 Total energy in the final basis set = -1510.27844851
   12   -1510.2785020449      5.10E-09 Convergence criterion met
 Total energy in the final basis set = -1510.27850204
   11   -1510.2785187932      9.24E-09 Convergence criterion met
 Total energy in the final basis set = -1510.27851879
   10   -1510.2785227371      5.30E-09 Convergence criterion met
 Total energy in the final basis set = -1510.27852274
   10   -1510.2785247137      5.67E-09 Convergence criterion met
 Total energy in the final basis set = -1510.27852471
    9   -1510.2785230553      5.39E-09 Convergence criterion met
 Total energy in the final basis set = -1510.27852306

             Standard Nuclear Orientation (Angstroms)
    I     Atom           X                Y                Z
 ----------------------------------------------------------------
    1      O       6.0045645774    -2.1385966863     0.3649331519
    2      C       5.1975136271    -1.2398182701     0.6901324082
    3      C       4.4617183586    -0.2568421137    -0.3005344336
    4      C       2.9962377985    -0.7024399131    -0.7255988422
    5      C       2.6046121437    -2.1004921901    -0.1125231985
    6      O       1.5624262477    -2.8814885309    -0.7268111891
    7      C       0.5158786328    -2.1296587296    -1.4486304601
    8      C      -0.7219800796    -1.9325652988    -0.4896322805
    9      O      -1.7491196417    -1.0746747205    -1.1249556699
   10      C      -1.6570882017     0.2707994682    -0.6365979055
   11      C      -2.7829943486     1.1190666537    -1.3204968656
   12      C      -4.2468236864     0.5609228464    -1.0679630229
   13      C      -4.2827651677    -0.7037904195    -0.1483183272
   14      O      -4.9044150130    -1.7703100582    -0.3454954018
   15      O       4.9265011340    -0.8426505044     2.0405640192
   16      O      -3.4837994906    -0.4301940443     1.0116229469
   17      O      -0.7848493391     0.6749382736     0.1651433698
   18      C      -3.4672839235    -1.5961630055     1.9245305266
   19      C      -2.8838469219     2.5613329669    -0.6734537101
   20      C      -3.7021172053     3.4877939020    -1.6543850717
   21      C      -5.1620614060     2.9396025537    -1.4378361313
   22      C      -4.9119733997     1.8188107882    -0.3520540505
   23      O      -3.8077510580     2.3630020675     0.4675263294
   24      H      -2.5663831443     1.1675369883    -2.4037225098
   25      H      -4.7576216686     0.3090446201    -2.0135745181
   26      H      -1.9135838049     2.9607169315    -0.3194951144
   27      H      -3.6177710362     4.5423934168    -1.3476081362
   28      H      -3.3622575134     3.3938544438    -2.6980754911
   29      H      -5.8308245220     3.7180458078    -1.0373823975
   30      H      -5.6067768342     2.5329682329    -2.3601956509
   31      H      -5.7852320900     1.5749161968     0.2836046436
   32      O       3.2316519332    -2.6587148302     0.8173374103
   33      C       5.5613860610    -1.7973102214     2.9744578928
   34      C       4.1665325791     1.1574576563     0.3511836632
   35      C       3.8263647102     2.1836137400    -0.8014905033
   36      C       2.3665404206     1.7381401018    -1.1810916624
   37      C       2.1413767484     0.5334590224    -0.1823752820
   38      O       2.8679674197     0.9525360037     1.0324919162
   39      H       5.1004641279    -0.1699139229    -1.1975947493
   40      H       2.9289734155    -0.7728390256    -1.8258082527
   41      H       6.6502814404    -1.8948340883     2.7862409434
   42      H       4.9333504559     1.4946386477     1.0744168681
   43      H       3.8473661869     3.2160048275    -0.4178045212
   44      H       4.5286601961     2.1064258091    -1.6469340877
   45      H       1.6338030297     2.5355116218    -0.9790015615
   46      H       2.2732011401     1.4327755244    -2.2359115857
   47      H       1.0694846415     0.3431817137     0.0524621178
   48      H       5.0970779822    -2.8015854837     2.8930148435
   49      H       5.3927067475    -1.3924350997     3.9892553462
   50      H      -2.4141157393    -1.8713500525     2.1260792341
   51      H      -4.0063274976    -2.4443392569     1.4557281092
   52      H      -3.9594578623    -1.3181509685     2.8773517771
   53      H      -1.1983636643    -2.9119639351    -0.2835945932
   54      H      -0.3799291349    -1.4738937043     0.4622553717
   55      H       0.2195261934    -2.7548960708    -2.3163032685
   56      H       0.8547258347    -1.1460165138    -1.8279591638
 ----------------------------------------------------------------

    8   -1510.2785234785      9.72E-09 Convergence criterion met
 Total energy in the final basis set = -1510.27852348
 Final energy is   -1510.27852347855
 **  OPTIMIZATION CONVERGED  **

                    Orbital Energies (a.u.)
 --------------------------------------------------------------

 Alpha MOs
 -- Occupied --
-18.949 -18.940 -18.939 -18.914 -18.897 -18.895 -18.889 -18.884
-18.883 -18.849 -10.119 -10.107 -10.107 -10.086 -10.084 -10.082
-10.068 -10.066 -10.063 -10.053 -10.050 -10.048 -10.046 -10.046
-10.038 -10.029 -10.027 -10.026 -10.017 -10.016  -1.031  -1.015
 -1.013  -0.990  -0.977  -0.964  -0.955  -0.944  -0.942  -0.916
 -0.773  -0.758  -0.735  -0.720  -0.717  -0.709  -0.701  -0.664
 -0.645  -0.625  -0.598  -0.595  -0.554  -0.544  -0.542  -0.534
 -0.521  -0.513  -0.493  -0.483  -0.477  -0.460  -0.456  -0.446
 -0.440  -0.432  -0.430  -0.421  -0.418  -0.407  -0.402  -0.398
 -0.395  -0.392  -0.386  -0.373  -0.370  -0.362  -0.359  -0.352
 -0.344  -0.339  -0.335  -0.333  -0.327  -0.324  -0.319  -0.317
 -0.313  -0.310  -0.304  -0.301  -0.299  -0.297  -0.282  -0.280
 -0.270  -0.264  -0.253  -0.250  -0.241  -0.235  -0.227  -0.200
 -0.180  -0.175  -0.173  -0.162  -0.156  -0.155  -0.151  -0.139
 -0.132

          Ground-State Mulliken Net Atomic Charges

     Atom                 Charge (a.u.)
  ----------------------------------------
      1 O                    -0.224665
      2 C                     0.214089
      3 C                    -0.080280
      4 C                    -0.086700
      5 C                     0.213227
      6 O                    -0.170933
      7 C                    -0.049232
      8 C                    -0.054467
      9 O                    -0.174151
     10 C                     0.222835
     11 C                    -0.077339
     12 C                    -0.077982
     13 C                     0.213360
     14 O                    -0.211706
     15 O                    -0.169391
     16 O                    -0.169005
     17 O                    -0.209884
     18 C                    -0.135643
     19 C                     0.025238
     20 C                    -0.143948
     21 C                    -0.143791
     22 C                     0.026502
     23 O                    -0.183835
     24 H                     0.085776
     25 H                     0.087185
     26 H                     0.091219
     27 H                     0.079843
     28 H                     0.073230
     29 H                     0.079713
     30 H                     0.074621
     31 H                     0.084495
     32 O                    -0.188538
     33 C                    -0.127268
     34 C                     0.026641
     35 C                    -0.144998
     36 C                    -0.145140
     37 C                     0.008454
     38 O                    -0.185235
     39 H                     0.080957
     40 H                     0.077692
     41 H                     0.085635
     42 H                     0.087327
     43 H                     0.076936
     44 H                     0.071697
     45 H                     0.076926
     46 H                     0.066054
     47 H                     0.099387
     48 H                     0.091984
     49 H                     0.086331
     50 H                     0.086596
     51 H                     0.101326
     52 H                     0.088903
     53 H                     0.094266
     54 H                     0.097986
     55 H                     0.092193
     56 H                     0.085506
  ----------------------------------------
  Sum of atomic charges =    -0.000000

                    Cartesian Multipole Moments
 -----------------------------------------------------------------
    Charge (ESU x 10^10)
                -0.0000
    Dipole Moment (Debye)
         X      -2.6283      Y       2.4439      Z      -3.1688
       Tot       4.7877
    Quadrupole Moments (Debye-Ang)
        XX    -167.1931     XY       5.8548     YY    -166.3895
        XZ       0.1469     YZ      -8.1298     ZZ    -152.6332

 Total job time:  133.46s(wall), 6360.83s(cpu)
        *  Thank you very much for using Q-Chem.  Have a nice day.  *
