 Q-Chem 5.0, Q-Chem, Inc., Pleasanton, CA (2017)
 Q-Chem 5.0.1 for Intel X86 EM64T Linux

User input:
--------------------------------------------------------------
$molecule
0  1
O -3.94934 -3.66094 2.70899
C -3.26408 -4.56952 2.26188
C -3.36658 -6.02376 2.66595
C -4.41631 -6.88207 1.94122
C -5.12384 -6.23632 0.77054
O -6.43614 -6.61459 0.75547
C -6.61773 -8.02456 0.92354
C -8.00417 -8.43727 0.44022
O -7.90368 -9.08946 -0.83549
C -7.13245 -8.45717 -1.75449
C -6.32705 -9.41167 -2.60356
C -6.95865 -10.79826 -2.79525
C -8.42472 -10.91293 -2.42891
O -9.09877 -11.92942 -2.51238
O -2.27242 -4.24322 1.38749
O -9.17026 -9.79948 -2.72146
O -6.92791 -7.25048 -1.76006
C -10.54222 -9.65602 -2.60031
C -6.21299 -8.96617 -4.08106
C -4.97289 -9.60127 -4.70874
C -5.40891 -11.05042 -4.78777
C -6.86575 -10.92053 -4.32729
O -7.24959 -9.63654 -4.7517
H -5.29848 -9.43229 -2.17814
H -6.41505 -11.60346 -2.2548
H -6.18209 -7.86263 -4.21219
H -4.89609 -9.19678 -5.74384
H -4.01322 -9.42292 -4.17771
H -5.3497 -11.37719 -5.84963
H -4.84404 -11.75305 -4.13741
H -7.47626 -11.76363 -4.72013
O -4.61742 -5.53799 -0.09416
C -2.03056 -2.96858 0.91955
C -2.06563 -6.7903 2.36592
C -1.99833 -8.07802 3.19018
C -2.99055 -8.93313 2.44072
C -3.43352 -7.95202 1.35551
O -2.25944 -7.24148 1.05956
H -3.49458 -6.0149 3.77214
H -5.06905 -7.31981 2.7153
H -1.78669 -2.28966 1.76431
H -1.15104 -6.18344 2.5469
H -0.98636 -8.52805 3.07672
H -2.21997 -7.92514 4.26843
H -2.43451 -9.76757 1.95626
H -3.82842 -9.34402 3.04406
H -3.8128 -8.52544 0.49
H -2.92052 -2.58709 0.3746
H -1.16895 -2.99513 0.22146
H -10.75574 -8.803 -1.9235
H -11.03343 -10.55929 -2.17996
H -10.97624 -9.43817 -3.59746
H -8.42877 -9.20913 1.12016
H -8.71478 -7.58174 0.43082
H -6.72591 -8.21308 2.01086
H -5.8588 -8.70855 0.51123
$end

$opt
CONSTRAINT
tors           1           2           3           4     +85.263
tors           3           4           5           6    -142.105
tors           4           5           6           7     -47.368
tors           5           6           7           8    -161.053
tors           6           7           8           9    +104.211
tors           7           8           9          10     -47.368
tors           8           9          10          11    +142.105
tors           9          10          11          12     +28.421
tors          11          12          13          14    -180.000
ENDCONSTRAINT
$end

$rem
JOBTYPE                   OPT
METHOD                    B3LYP
DFT_D                     d3_op
BASIS                     STO-3G
GEOM_OPT_MAX_CYCLES       100
GEOM_OPT_TOL_GRADIENT     300
GEOM_OPT_TOL_DISPLACEMENT 1200
GEOM_OPT_TOL_ENERGY       100
SYMMETRY                  False
THRESH                    12
SCF_CONVERGENCE           8
MAX_SUB_FILE_NUM          128
MEM_STATIC                400
MEM_TOTAL                 4000
$end
--------------------------------------------------------------

   15   -1510.0901697180      8.33E-09 Convergence criterion met
 Total energy in the final basis set = -1510.09016972
   14   -1510.1666654926      8.56E-09 Convergence criterion met
 Total energy in the final basis set = -1510.16666549
   14   -1510.2086886322      9.52E-09 Convergence criterion met
 Total energy in the final basis set = -1510.20868863
   14   -1510.2302755229      8.12E-09 Convergence criterion met
 Total energy in the final basis set = -1510.23027552
   14   -1510.2394368383      5.67E-09 Convergence criterion met
 Total energy in the final basis set = -1510.23943684
   13   -1510.2442141506      9.32E-09 Convergence criterion met
 Total energy in the final basis set = -1510.24421415
   13   -1510.2469816805      2.78E-09 Convergence criterion met
 Total energy in the final basis set = -1510.24698168
   13   -1510.2484230232      3.63E-09 Convergence criterion met
   11   -1510.2492356674      3.79E-09 Convergence criterion met
 Total energy in the final basis set = -1510.24923567
   11   -1510.2492421951      3.44E-09 Convergence criterion met
 Total energy in the final basis set = -1510.24924220
    9   -1510.2492526484      8.09E-09 Convergence criterion met
 Total energy in the final basis set = -1510.24925265
    9   -1510.2492575842      4.74E-09 Convergence criterion met
 Total energy in the final basis set = -1510.24925758
    9   -1510.2492596463      9.87E-09 Convergence criterion met
 Total energy in the final basis set = -1510.24925965
    9   -1510.2492609526      8.33E-09 Convergence criterion met
 Total energy in the final basis set = -1510.24926095

             Standard Nuclear Orientation (Angstroms)
    I     Atom           X                Y                Z
 ----------------------------------------------------------------
    1      O       5.1310680708    -1.2615710700     1.6750764168
    2      C       4.8618879418    -0.2930495209     0.9308480206
    3      C       4.5429428472    -0.3724420483    -0.6112006075
    4      C       3.0190484205    -0.6851263322    -0.9350644031
    5      C       2.1407067789    -0.8750071699     0.3615739678
    6      O       1.1180577895    -1.8932171246     0.3157611091
    7      C       0.3030194759    -1.8225728916    -0.9186625883
    8      C      -1.0366953200    -2.6116001148    -0.6484421427
    9      O      -2.2218601968    -1.7544702584    -0.4175335479
   10      C      -1.9352763333    -0.6979056532     0.5313080802
   11      C      -2.6599216456     0.6282771344     0.1040768027
   12      C      -3.9976601218     0.5035470963    -0.7186323271
   13      C      -4.8802790380    -0.7469912906    -0.3529887107
   14      O      -5.9780709802    -1.0491122246    -0.8727900999
   15      O       4.8789780535     1.0756098151     1.3462066102
   16      O      -4.3756193638    -1.3470531966     0.8446085631
   17      O      -1.1535395244    -0.8160003350     1.4967390416
   18      C      -5.2297865848    -2.4789269521     1.2659744436
   19      C      -3.0791207532     1.6285780755     1.2669720857
   20      C      -2.8957915139     3.0842780878     0.6898075247
   21      C      -4.0325025621     3.0993974161    -0.4013241898
   22      C      -4.7849397943     1.7421378823    -0.0936918232
   23      O      -4.5545945974     1.5131008004     1.3545137735
   24      H      -1.9162335375     1.1404541981    -0.5383970818
   25      H      -3.8537017297     0.5688272692    -1.8109968072
   26      H      -2.6035520099     1.4238825273     2.2458908404
   27      H      -3.0858439303     3.8334291882     1.4751325742
   28      H      -1.8915088286     3.2542303325     0.2699959792
   29      H      -4.7112156681     3.9572063585    -0.2740100733
   30      H      -3.6315161331     3.1176016053    -1.4277343679
   31      H      -5.8691526851     1.7430752192    -0.3200229526
   32      O       2.3957025573    -0.3402202235     1.4629527737
   33      C       5.0784259427     1.1484705969     2.8107235246
   34      C       4.7260500288     1.0142799544    -1.3576493492
   35      C       4.7606183126     0.7504210733    -2.9166243726
   36      C       3.2398841657     0.4751547597    -3.2156303642
   37      C       2.6210040502     0.6144232376    -1.7687620797
   38      O       3.4230220377     1.6880432815    -1.1480761979
   39      H       5.1881285286    -1.1588076054    -1.0424248555
   40      H       2.9336489239    -1.5918296066    -1.5580925581
   41      H       6.0161648636     0.6447187553     3.1225811034
   42      H       5.5500298151     1.6388120968    -0.9639615394
   43      H       5.1215140273     1.6431483731    -3.4514183308
   44      H       5.4059211217    -0.1032626873    -3.1784218026
   45      H       2.8153051763     1.2361329034    -3.8898045336
   46      H       3.0627331393    -0.5214054437    -3.6506621953
   47      H       1.5451874347     0.8746263782    -1.7417760128
   48      H       4.2280615434     0.6834084679     3.3502736457
   49      H       5.1320003438     2.2244144313     3.0586916081
   50      H      -4.6766339264    -3.4289749498     1.1242690996
   51      H      -6.1563885383    -2.4856764980     0.6567680522
   52      H      -5.4713978661    -2.3498461708     2.3384156318
   53      H      -1.3023290821    -3.2243612316    -1.5335263953
   54      H      -0.8544712262    -3.2937548091     0.2135765617
   55      H       0.8354849051    -2.2949131695    -1.7753459378
   56      H       0.0669749615    -0.7755932951    -1.2056135956
 ----------------------------------------------------------------

    9   -1510.2492618251      5.82E-09 Convergence criterion met
 Total energy in the final basis set = -1510.24926183
 Final energy is   -1510.24926182511
 **  OPTIMIZATION CONVERGED  **

                    Orbital Energies (a.u.)
 --------------------------------------------------------------

 Alpha MOs
 -- Occupied --
-18.934 -18.930 -18.923 -18.921 -18.894 -18.894 -18.886 -18.882
-18.871 -18.859 -10.107 -10.102 -10.098 -10.091 -10.085 -10.078
-10.069 -10.062 -10.061 -10.058 -10.055 -10.052 -10.042 -10.041
-10.038 -10.037 -10.027 -10.024 -10.022 -10.020  -1.014  -1.010
 -1.002  -0.997  -0.975  -0.970  -0.944  -0.937  -0.932  -0.924
 -0.766  -0.765  -0.727  -0.725  -0.714  -0.710  -0.701  -0.656
 -0.651  -0.616  -0.602  -0.591  -0.552  -0.544  -0.542  -0.537
 -0.520  -0.508  -0.490  -0.480  -0.468  -0.458  -0.455  -0.441
 -0.439  -0.436  -0.429  -0.413  -0.412  -0.407  -0.405  -0.400
 -0.395  -0.389  -0.377  -0.367  -0.362  -0.361  -0.355  -0.347
 -0.340  -0.339  -0.335  -0.334  -0.330  -0.325  -0.317  -0.315
 -0.312  -0.307  -0.306  -0.300  -0.297  -0.295  -0.288  -0.277
 -0.273  -0.252  -0.250  -0.241  -0.238  -0.237  -0.234  -0.183
 -0.173  -0.164  -0.162  -0.157  -0.156  -0.149  -0.147  -0.144
 -0.139

          Ground-State Mulliken Net Atomic Charges

     Atom                 Charge (a.u.)
  ----------------------------------------
      1 O                    -0.219647
      2 C                     0.212631
      3 C                    -0.079445
      4 C                    -0.084990
      5 C                     0.214802
      6 O                    -0.169929
      7 C                    -0.048555
      8 C                    -0.047915
      9 O                    -0.181115
     10 C                     0.218000
     11 C                    -0.078503
     12 C                    -0.075287
     13 C                     0.217351
     14 O                    -0.218989
     15 O                    -0.167211
     16 O                    -0.164188
     17 O                    -0.196228
     18 C                    -0.133131
     19 C                     0.025038
     20 C                    -0.141341
     21 C                    -0.145719
     22 C                     0.023716
     23 O                    -0.190356
     24 H                     0.076797
     25 H                     0.085205
     26 H                     0.092349
     27 H                     0.079084
     28 H                     0.073704
     29 H                     0.079056
     30 H                     0.072519
     31 H                     0.085513
     32 O                    -0.180365
     33 C                    -0.127010
     34 C                     0.026437
     35 C                    -0.144624
     36 C                    -0.143923
     37 C                     0.024314
     38 O                    -0.184692
     39 H                     0.082978
     40 H                     0.078467
     41 H                     0.086485
     42 H                     0.090814
     43 H                     0.078600
     44 H                     0.073991
     45 H                     0.077827
     46 H                     0.071512
     47 H                     0.074944
     48 H                     0.095669
     49 H                     0.088056
     50 H                     0.085290
     51 H                     0.101704
     52 H                     0.089514
     53 H                     0.088513
     54 H                     0.095926
     55 H                     0.077536
     56 H                     0.078820
  ----------------------------------------
  Sum of atomic charges =     0.000000

                    Cartesian Multipole Moments
 -----------------------------------------------------------------
    Charge (ESU x 10^10)
                 0.0000
    Dipole Moment (Debye)
         X       0.8408      Y       0.3649      Z      -4.3619
       Tot       4.4572
    Quadrupole Moments (Debye-Ang)
        XX    -167.5568     XY       0.9149     YY    -155.4992
        XZ      -8.8760     YZ       4.3877     ZZ    -157.7270

 Total job time:  58.78s(wall), 2797.16s(cpu)
        *  Thank you very much for using Q-Chem.  Have a nice day.  *
