 Q-Chem 5.0, Q-Chem, Inc., Pleasanton, CA (2017)
 Q-Chem 5.0.1 for Intel X86 EM64T Linux

User input:
--------------------------------------------------------------
$molecule
0  1
O -4.8352447744 -1.9850836168 0.9555988439
C -4.3454791766 -1.1113397975 0.2059727302
C -4.0697508128 0.3881397815 0.5881528838
C -2.5460167605 0.7580218023 0.8636576326
C -1.5180413353 -0.4281353602 0.9522416192
O -1.6918954491 -1.3458167763 -0.1412740673
C -0.5162180411 -1.5951415511 -0.9908109737
C 0.7976166051 -2.3365367944 -0.456070571
O 1.948561079 -1.4587328544 -0.186308397
C 1.9262712416 -0.8663534527 1.1307617943
C 2.4526968301 0.6077403126 1.0749470779
C 3.9937157711 0.7389364011 0.692562487
C 4.6332709692 -0.6467620362 0.3175237818
O 5.1127616558 -1.4823397634 1.1153657432
O -4.1014965646 -1.3056511742 -1.1905789735
O 4.5821599631 -0.8298339229 -1.0991447978
O 1.6303205337 -1.5004855338 2.1652052037
C 5.0713409683 -2.1822674993 -1.4495862943
C 1.7845388196 1.4778860713 -0.0725352813
C 1.9876406781 3.0001657877 0.292989245
C 3.5247932383 3.1707736419 -0.0009850522
C 3.9007789212 1.7310616734 -0.5391974653
O 2.6723806259 1.2863634442 -1.2392339835
H 2.263996672 1.0458337629 2.0709395614
H 4.5685381291 1.1630653705 1.5351556087
H 0.7476589462 1.1848925327 -0.323022071
H 1.376802949 3.6374472835 -0.3666618128
H 1.7236460066 3.218046945 1.3401141701
H 3.7070802509 3.9331449284 -0.7747136265
H 4.100378751 3.4367691005 0.8999509718
H 4.7694618422 1.6934829313 -1.2235414525
O -0.6710733253 -0.5423138162 1.8612753398
C -4.3244813981 -2.7240000321 -1.5475721253
C -4.3787992157 1.3514541622 -0.6357933859
C -4.4077947229 2.8471276049 -0.1230820996
C -2.8712185634 3.1523249841 0.0267046471
C -2.2535987098 1.7505440286 -0.3521549745
O -3.13430769 1.274174915 -1.4372993769
H -4.6868311184 0.6201168264 1.4742896772
H -2.4628473688 1.3023765255 1.821431586
H -5.3446347635 -3.0633265621 -1.2741577593
H -5.2492020048 1.0465044483 -1.2476457101
H -4.8809592014 3.5035775914 -0.8701718577
H -4.9540987238 2.9445064102 0.8288209245
H -2.5414479803 3.9197850256 -0.692097404
H -2.5939810108 3.476298439 1.0425728411
H -1.2007462855 1.7779774258 -0.692000805
H -3.5866793814 -3.3840670996 -1.0472057527
H -4.1922828165 -2.7862788724 -2.6434326327
H 5.0725566764 -2.2289556731 -2.5540567293
H 4.3990254971 -2.9666917607 -1.0457020812
H 6.0961674954 -2.362017482 -1.0654762435
H 0.543799642 -2.9520739071 0.4368384263
H 1.1355586071 -3.0145433488 -1.2662314309
H -0.1853680368 -0.641754234 -1.4644702822
H -0.9321038906 -2.233476887 -1.7975921609
$end

$rem
JOBTYPE                   OPT
METHOD                    B3LYP
DFT_D                     d3_op
BASIS                     STO-3G
GEOM_OPT_MAX_CYCLES       100
GEOM_OPT_TOL_GRADIENT     300
GEOM_OPT_TOL_DISPLACEMENT 1200
GEOM_OPT_TOL_ENERGY       100
SYMMETRY                  False
THRESH                    12
SCF_CONVERGENCE           8
MAX_SUB_FILE_NUM          128
MEM_STATIC                400
MEM_TOTAL                 4000
$end
--------------------------------------------------------------

   16   -1510.2503011839      4.27E-09 Convergence criterion met
 Total energy in the final basis set = -1510.25030118
   14   -1510.2555168256      5.09E-09 Convergence criterion met
 Total energy in the final basis set = -1510.25551683
   14   -1510.2621905722      6.26E-09 Convergence criterion met
 Total energy in the final basis set = -1510.26219057
   14   -1510.2687352934      3.22E-09 Convergence criterion met
 Total energy in the final basis set = -1510.26873529
   14   -1510.2741420942      9.83E-09 Convergence criterion met
 Total energy in the final basis set = -1510.27414209
   15   -1510.2789339645      2.33E-09 Convergence criterion met
 Total energy in the final basis set = -1510.27893396
   15   -1510.2823059573      2.59E-09 Convergence criterion met
 Total energy in the final basis set = -1510.28230596
   15   -1510.2848911244      3.01E-09 Convergence criterion met
   11   -1510.2898235239      2.66E-09 Convergence criterion met
 Total energy in the final basis set = -1510.28982352
   10   -1510.2898268809      9.09E-09 Convergence criterion met
 Total energy in the final basis set = -1510.28982688
   11   -1510.2898335726      4.70E-09 Convergence criterion met
 Total energy in the final basis set = -1510.28983357
   11   -1510.2898187965      4.52E-09 Convergence criterion met
 Total energy in the final basis set = -1510.28981880
   11   -1510.2898307603      2.63E-09 Convergence criterion met
 Total energy in the final basis set = -1510.28983076
   10   -1510.2898326273      6.25E-09 Convergence criterion met
 Total energy in the final basis set = -1510.28983263

             Standard Nuclear Orientation (Angstroms)
    I     Atom           X                Y                Z
 ----------------------------------------------------------------
    1      O      -2.0363282246    -1.5795366079     1.0551019879
    2      C      -3.0110548704    -1.1267966891     0.4117759207
    3      C      -3.6698870595     0.2943137489     0.5798103953
    4      C      -2.8206234510     1.4744543276    -0.0666148568
    5      C      -1.4472784376     1.0489574002    -0.6799181090
    6      O      -1.6334955076    -0.1534989698    -1.4310978516
    7      C      -0.3382204541    -0.7210825935    -1.8779997502
    8      C       0.4008693410    -1.4879471201    -0.7074920550
    9      O       1.5880221171    -0.7191009761    -0.2770021997
   10      C       1.3636937436    -0.0587815240     0.9773064935
   11      C       2.5884796663     0.8681864222     1.2558763603
   12      C       4.0110056447     0.2069080375     1.0054310358
   13      C       3.9205903938    -1.2999164000     0.5583965885
   14      O       3.5610335898    -2.2619736978     1.2718916721
   15      O      -3.7469403947    -1.8867661748    -0.5518614954
   16      O       4.3659982511    -1.4366177634    -0.7964644024
   17      O       0.3354103245    -0.1877078747     1.6742392304
   18      C       4.2371793746    -2.8466875736    -1.2250880926
   19      C       2.6189367990     2.0583047342     0.1938699540
   20      C       3.5508768626     3.1974294792     0.7619315427
   21      C       4.9718112870     2.5488424495     0.5653794671
   22      C       4.5921240881     1.1700403948    -0.1099937866
   23      O       3.4019312897     1.4974622725    -0.9283260882
   24      H       2.4943553286     1.2478179474     2.2881848884
   25      H       4.6140187304     0.2411446479     1.9312541728
   26      H       1.6094111417     2.3636199308    -0.1500980200
   27      H       3.4404223559     4.1178341641     0.1663996179
   28      H       3.3295359512     3.4302289240     1.8157121016
   29      H       5.6004425837     3.1491654759    -0.1113409024
   30      H       5.5096461541     2.4102138678     1.5168920971
   31      H       5.3813957811     0.7147747447    -0.7372200961
   32      O      -0.3594590148     1.6564720228    -0.5740687580
   33      C      -3.1193662151    -3.2135712902    -0.7404901153
   34      C      -5.0295053642     0.4372026937    -0.2198642682
   35      C      -5.7765611998     1.7393609682     0.2758887338
   36      C      -4.9411798513     2.8658334846    -0.4379281831
   37      C      -3.8432753340     2.0021182069    -1.1735241630
   38      O      -4.5779660236     0.7885125529    -1.5872713942
   39      H      -3.8042685725     0.4714421609     1.6624891221
   40      H      -2.6124387426     2.2628064853     0.6774319709
   41      H      -2.9417193951    -3.7255174725     0.2269696916
   42      H      -5.6427430077    -0.4831034929    -0.2401281701
   43      H      -6.8243174745     1.7357142004    -0.0640897080
   44      H      -5.7620841352     1.8308869664     1.3737542725
   45      H      -5.5500716530     3.4175247791    -1.1718978138
   46      H      -4.4997350910     3.5861428393     0.2691819986
   47      H      -3.3658807790     2.4862540060    -2.0477411118
   48      H      -2.1524802149    -3.1274279792    -1.2765387477
   49      H      -3.8256490778    -3.8026625333    -1.3539174103
   50      H       4.5571623934    -2.8744024424    -2.2830579654
   51      H       3.1896604300    -3.2011017491    -1.1439876009
   52      H       4.8824978975    -3.5205908536    -0.6245737440
   53      H      -0.3124841233    -1.6320806306     0.1421403285
   54      H       0.7647098693    -2.4697593779    -1.0722738010
   55      H       0.3313496585     0.0762927717    -2.2676584105
   56      H      -0.5999879158    -1.4187106369    -2.6982187431
 ----------------------------------------------------------------

    9   -1510.2898325941      9.92E-09 Convergence criterion met
 Total energy in the final basis set = -1510.28983259
 Final energy is   -1510.28983259413
 **  OPTIMIZATION CONVERGED  **

                    Orbital Energies (a.u.)
 --------------------------------------------------------------

 Alpha MOs
 -- Occupied --
-18.939 -18.934 -18.925 -18.923 -18.889 -18.882 -18.876 -18.869
-18.868 -18.858 -10.106 -10.100 -10.090 -10.089 -10.070 -10.063
-10.062 -10.058 -10.058 -10.056 -10.049 -10.045 -10.039 -10.037
-10.028 -10.026 -10.021 -10.020 -10.012 -10.011  -1.020  -1.007
 -1.004  -0.996  -0.970  -0.959  -0.943  -0.932  -0.928  -0.924
 -0.764  -0.753  -0.726  -0.716  -0.709  -0.700  -0.690  -0.661
 -0.653  -0.613  -0.594  -0.579  -0.545  -0.538  -0.535  -0.527
 -0.514  -0.505  -0.486  -0.474  -0.468  -0.460  -0.441  -0.434
 -0.432  -0.424  -0.422  -0.413  -0.408  -0.407  -0.403  -0.397
 -0.391  -0.377  -0.368  -0.365  -0.360  -0.357  -0.350  -0.348
 -0.338  -0.336  -0.333  -0.328  -0.321  -0.317  -0.312  -0.307
 -0.305  -0.304  -0.297  -0.294  -0.294  -0.288  -0.281  -0.277
 -0.266  -0.255  -0.249  -0.243  -0.234  -0.231  -0.223  -0.184
 -0.174  -0.167  -0.163  -0.157  -0.150  -0.146  -0.143  -0.138
 -0.132

          Ground-State Mulliken Net Atomic Charges

     Atom                 Charge (a.u.)
  ----------------------------------------
      1 O                    -0.218401
      2 C                     0.219092
      3 C                    -0.077126
      4 C                    -0.079050
      5 C                     0.216517
      6 O                    -0.169608
      7 C                    -0.053370
      8 C                    -0.065706
      9 O                    -0.173114
     10 C                     0.215059
     11 C                    -0.079225
     12 C                    -0.078390
     13 C                     0.213871
     14 O                    -0.223112
     15 O                    -0.164104
     16 O                    -0.166782
     17 O                    -0.207886
     18 C                    -0.126133
     19 C                     0.019561
     20 C                    -0.144138
     21 C                    -0.144892
     22 C                     0.024846
     23 O                    -0.188339
     24 H                     0.083354
     25 H                     0.081947
     26 H                     0.100017
     27 H                     0.076011
     28 H                     0.072254
     29 H                     0.075559
     30 H                     0.071204
     31 H                     0.088374
     32 O                    -0.214932
     33 C                    -0.127372
     34 C                     0.025493
     35 C                    -0.144894
     36 C                    -0.143174
     37 C                     0.025969
     38 O                    -0.185497
     39 H                     0.086602
     40 H                     0.087169
     41 H                     0.091486
     42 H                     0.090578
     43 H                     0.077803
     44 H                     0.073629
     45 H                     0.078105
     46 H                     0.074282
     47 H                     0.082805
     48 H                     0.084159
     49 H                     0.090619
     50 H                     0.088326
     51 H                     0.086111
     52 H                     0.086332
     53 H                     0.118635
     54 H                     0.079874
     55 H                     0.101325
     56 H                     0.088278
  ----------------------------------------
  Sum of atomic charges =    -0.000000

                    Cartesian Multipole Moments
 -----------------------------------------------------------------
    Charge (ESU x 10^10)
                -0.0000
    Dipole Moment (Debye)
         X      -0.9236      Y       0.4594      Z      -0.4847
       Tot       1.1397
    Quadrupole Moments (Debye-Ang)
        XX    -147.2743     XY      -1.0077     YY    -149.1746
        XZ      -3.2510     YZ      10.1884     ZZ    -162.9042

 Total job time:  90.23s(wall), 4296.76s(cpu)
        *  Thank you very much for using Q-Chem.  Have a nice day.  *
