 Q-Chem 5.0, Q-Chem, Inc., Pleasanton, CA (2017)
 Q-Chem 5.0.1 for Intel X86 EM64T Linux

User input:
--------------------------------------------------------------
$molecule
0  1
O -3.94934 -3.66094 2.70899
C -3.26408 -4.56952 2.26188
C -3.36658 -6.02376 2.66595
C -4.06137 -6.97914 1.68189
C -4.41791 -6.40938 0.32677
O -3.34788 -5.73557 -0.18939
C -2.93982 -6.22431 -1.47153
C -4.02408 -5.94934 -2.5083
O -4.73362 -7.16168 -2.80774
C -5.75683 -7.46071 -1.96942
C -5.86971 -8.93913 -1.68276
C -6.25753 -9.8049 -2.89037
C -6.12623 -9.14302 -4.24734
O -6.97394 -8.43994 -4.77803
O -2.22958 -4.23286 1.44261
O -5.01375 -9.43395 -4.9791
O -6.71054 -6.70684 -1.83463
C -4.74737 -8.93078 -6.2354
C -4.53343 -9.61229 -1.32634
C -4.78876 -10.83293 -0.45172
C -5.42466 -11.7572 -1.47293
C -5.2157 -10.93142 -2.75438
O -4.05354 -10.19777 -2.50755
H -6.57745 -9.05688 -0.83056
H -7.28765 -10.21923 -2.82797
H -3.84943 -8.89766 -0.90003
H -3.7873 -11.23511 -0.17597
H -5.38051 -10.66262 0.47327
H -4.84612 -12.70699 -1.49353
H -6.50473 -11.96672 -1.31405
H -5.19557 -11.59373 -3.64794
O -5.5171 -5.88608 0.24663
C -1.95775 -2.9518 1.00976
C -2.00011 -6.67139 2.90188
C -2.14496 -7.85697 3.84955
C -2.84689 -8.84045 2.94532
C -2.90746 -8.03304 1.63988
O -1.72442 -7.27393 1.66927
H -3.94454 -6.00525 3.61812
H -4.97306 -7.47109 2.09056
H -1.75053 -2.2897 1.87739
H -1.2368 -5.95927 3.28595
H -1.12424 -8.24087 4.07483
H -2.67301 -7.62497 4.79956
H -2.17846 -9.72156 2.81387
H -3.84749 -9.18096 3.28882
H -2.95002 -8.7692 0.84484
H -2.81796 -2.55498 0.42932
H -1.06359 -2.97247 0.35369
H -3.77579 -9.33236 -6.58914
H -4.68353 -7.82221 -6.19641
H -5.54249 -9.23772 -6.94793
H -4.66001 -5.05549 -2.32094
H -3.47681 -5.73117 -3.45084
H -2.54413 -7.25907 -1.47348
H -2.07539 -5.57821 -1.73779
$end

$opt
CONSTRAINT
tors           1           2           3           4    +104.211
tors           3           4           5           6     +47.368
tors           4           5           6           7    +123.158
tors           5           6           7           8     +66.316
tors           6           7           8           9    -104.211
tors           7           8           9          10     +85.263
tors           8           9          10          11    -142.105
tors           9          10          11          12     -66.316
tors          11          12          13          14     -85.263
ENDCONSTRAINT
$end

$rem
JOBTYPE                   OPT
METHOD                    B3LYP
DFT_D                     d3_op
BASIS                     STO-3G
GEOM_OPT_MAX_CYCLES       100
GEOM_OPT_TOL_GRADIENT     300
GEOM_OPT_TOL_DISPLACEMENT 1200
GEOM_OPT_TOL_ENERGY       100
SYMMETRY                  False
THRESH                    12
SCF_CONVERGENCE           8
MAX_SUB_FILE_NUM          128
MEM_STATIC                400
MEM_TOTAL                 4000
$end
--------------------------------------------------------------

   15   -1510.0738482051      9.86E-09 Convergence criterion met
 Total energy in the final basis set = -1510.07384821
   14   -1510.1526762975      7.90E-09 Convergence criterion met
 Total energy in the final basis set = -1510.15267630
   14   -1510.1956128685      8.48E-09 Convergence criterion met
 Total energy in the final basis set = -1510.19561287
   14   -1510.2210106380      7.63E-09 Convergence criterion met
 Total energy in the final basis set = -1510.22101064
   14   -1510.2326606329      3.72E-09 Convergence criterion met
 Total energy in the final basis set = -1510.23266063
   14   -1510.2395339380      2.18E-09 Convergence criterion met
 Total energy in the final basis set = -1510.23953394
    2   -1510.2395339377      9.52E-10 Convergence criterion met
 Total energy in the final basis set = -1510.23953394
   13   -1510.2440195609      9.45E-09 Convergence criterion met
   11   -1510.2502500630      3.67E-09 Convergence criterion met
 Total energy in the final basis set = -1510.25025006
   11   -1510.2502591444      2.66E-09 Convergence criterion met
 Total energy in the final basis set = -1510.25025914
   10   -1510.2502669226      7.57E-09 Convergence criterion met
 Total energy in the final basis set = -1510.25026692
   11   -1510.2502740112      1.94E-09 Convergence criterion met
 Total energy in the final basis set = -1510.25027401
   11   -1510.2502783993      2.41E-09 Convergence criterion met
 Total energy in the final basis set = -1510.25027840
    9   -1510.2502799873      9.34E-09 Convergence criterion met
 Total energy in the final basis set = -1510.25027999

             Standard Nuclear Orientation (Angstroms)
    I     Atom           X                Y                Z
 ----------------------------------------------------------------
    1      O      -4.8352447744    -1.9850836168     0.9555988439
    2      C      -4.3454791766    -1.1113397975     0.2059727302
    3      C      -4.0697508128     0.3881397815     0.5881528838
    4      C      -2.5460167605     0.7580218023     0.8636576326
    5      C      -1.5180413353    -0.4281353602     0.9522416192
    6      O      -1.6918954491    -1.3458167763    -0.1412740673
    7      C      -0.5162180411    -1.5951415511    -0.9908109737
    8      C       0.7976166051    -2.3365367944    -0.4560705710
    9      O       1.9485610790    -1.4587328544    -0.1863083970
   10      C       1.9262712416    -0.8663534527     1.1307617943
   11      C       2.4526968301     0.6077403126     1.0749470779
   12      C       3.9937157711     0.7389364011     0.6925624870
   13      C       4.6332709692    -0.6467620362     0.3175237818
   14      O       5.1127616558    -1.4823397634     1.1153657432
   15      O      -4.1014965646    -1.3056511742    -1.1905789735
   16      O       4.5821599631    -0.8298339229    -1.0991447978
   17      O       1.6303205337    -1.5004855338     2.1652052037
   18      C       5.0713409683    -2.1822674993    -1.4495862943
   19      C       1.7845388196     1.4778860713    -0.0725352813
   20      C       1.9876406781     3.0001657877     0.2929892450
   21      C       3.5247932383     3.1707736419    -0.0009850522
   22      C       3.9007789212     1.7310616734    -0.5391974653
   23      O       2.6723806259     1.2863634442    -1.2392339835
   24      H       2.2639966720     1.0458337629     2.0709395614
   25      H       4.5685381291     1.1630653705     1.5351556087
   26      H       0.7476589462     1.1848925327    -0.3230220710
   27      H       1.3768029490     3.6374472835    -0.3666618128
   28      H       1.7236460066     3.2180469450     1.3401141701
   29      H       3.7070802509     3.9331449284    -0.7747136265
   30      H       4.1003787510     3.4367691005     0.8999509718
   31      H       4.7694618422     1.6934829313    -1.2235414525
   32      O      -0.6710733253    -0.5423138162     1.8612753398
   33      C      -4.3244813981    -2.7240000321    -1.5475721253
   34      C      -4.3787992157     1.3514541622    -0.6357933859
   35      C      -4.4077947229     2.8471276049    -0.1230820996
   36      C      -2.8712185634     3.1523249841     0.0267046471
   37      C      -2.2535987098     1.7505440286    -0.3521549745
   38      O      -3.1343076900     1.2741749150    -1.4372993769
   39      H      -4.6868311184     0.6201168264     1.4742896772
   40      H      -2.4628473688     1.3023765255     1.8214315860
   41      H      -5.3446347635    -3.0633265621    -1.2741577593
   42      H      -5.2492020048     1.0465044483    -1.2476457101
   43      H      -4.8809592014     3.5035775914    -0.8701718577
   44      H      -4.9540987238     2.9445064102     0.8288209245
   45      H      -2.5414479803     3.9197850256    -0.6920974040
   46      H      -2.5939810108     3.4762984390     1.0425728411
   47      H      -1.2007462855     1.7779774258    -0.6920008050
   48      H      -3.5866793814    -3.3840670996    -1.0472057527
   49      H      -4.1922828165    -2.7862788724    -2.6434326327
   50      H       5.0725566764    -2.2289556731    -2.5540567293
   51      H       4.3990254971    -2.9666917607    -1.0457020812
   52      H       6.0961674954    -2.3620174820    -1.0654762435
   53      H       0.5437996420    -2.9520739071     0.4368384263
   54      H       1.1355586071    -3.0145433488    -1.2662314309
   55      H      -0.1853680368    -0.6417542340    -1.4644702822
   56      H      -0.9321038906    -2.2334768870    -1.7975921609
 ----------------------------------------------------------------

    9   -1510.2502802231      7.21E-09 Convergence criterion met
 Total energy in the final basis set = -1510.25028022
 Final energy is   -1510.25028022306
 **  OPTIMIZATION CONVERGED  **

                    Orbital Energies (a.u.)
 --------------------------------------------------------------

 Alpha MOs
 -- Occupied --
-18.931 -18.930 -18.920 -18.916 -18.897 -18.894 -18.889 -18.884
-18.868 -18.868 -10.110 -10.098 -10.095 -10.094 -10.075 -10.071
-10.066 -10.063 -10.063 -10.060 -10.059 -10.059 -10.040 -10.039
-10.037 -10.036 -10.025 -10.023 -10.022 -10.021  -1.015  -1.008
 -1.005  -0.999  -0.974  -0.970  -0.947  -0.932  -0.930  -0.929
 -0.765  -0.763  -0.727  -0.724  -0.713  -0.707  -0.699  -0.657
 -0.657  -0.616  -0.599  -0.588  -0.551  -0.545  -0.541  -0.538
 -0.520  -0.510  -0.482  -0.477  -0.471  -0.470  -0.441  -0.436
 -0.432  -0.430  -0.424  -0.411  -0.410  -0.409  -0.406  -0.404
 -0.393  -0.378  -0.373  -0.368  -0.367  -0.360  -0.349  -0.345
 -0.344  -0.340  -0.339  -0.336  -0.329  -0.328  -0.324  -0.316
 -0.312  -0.307  -0.306  -0.304  -0.296  -0.289  -0.285  -0.281
 -0.275  -0.249  -0.248  -0.245  -0.238  -0.235  -0.231  -0.185
 -0.171  -0.171  -0.160  -0.154  -0.153  -0.148  -0.146  -0.143
 -0.143

          Ground-State Mulliken Net Atomic Charges

     Atom                 Charge (a.u.)
  ----------------------------------------
      1 O                    -0.215956
      2 C                     0.210991
      3 C                    -0.078337
      4 C                    -0.081141
      5 C                     0.212616
      6 O                    -0.187588
      7 C                    -0.048564
      8 C                    -0.050994
      9 O                    -0.185568
     10 C                     0.212723
     11 C                    -0.079298
     12 C                    -0.077551
     13 C                     0.207614
     14 O                    -0.214812
     15 O                    -0.160879
     16 O                    -0.161877
     17 O                    -0.184405
     18 C                    -0.126508
     19 C                     0.026639
     20 C                    -0.143750
     21 C                    -0.144671
     22 C                     0.026460
     23 O                    -0.184419
     24 H                     0.087494
     25 H                     0.085438
     26 H                     0.072103
     27 H                     0.075977
     28 H                     0.074330
     29 H                     0.077616
     30 H                     0.073898
     31 H                     0.087778
     32 O                    -0.189551
     33 C                    -0.126884
     34 C                     0.027339
     35 C                    -0.144990
     36 C                    -0.142592
     37 C                     0.024769
     38 O                    -0.183223
     39 H                     0.085701
     40 H                     0.083598
     41 H                     0.088504
     42 H                     0.086501
     43 H                     0.078557
     44 H                     0.074596
     45 H                     0.078143
     46 H                     0.074512
     47 H                     0.076935
     48 H                     0.088358
     49 H                     0.088530
     50 H                     0.089656
     51 H                     0.089558
     52 H                     0.088669
     53 H                     0.094255
     54 H                     0.088442
     55 H                     0.083654
     56 H                     0.091603
  ----------------------------------------
  Sum of atomic charges =     0.000000

                    Cartesian Multipole Moments
 -----------------------------------------------------------------
    Charge (ESU x 10^10)
                -0.0000
    Dipole Moment (Debye)
         X      -0.5957      Y       2.5507      Z      -2.0231
       Tot       3.3096
    Quadrupole Moments (Debye-Ang)
        XX    -156.4806     XY      -0.6445     YY    -149.6532
        XZ      -2.6474     YZ      15.2733     ZZ    -168.4614

 Total job time:  74.72s(wall), 3562.96s(cpu)
        *  Thank you very much for using Q-Chem.  Have a nice day.  *
