 Q-Chem 5.0, Q-Chem, Inc., Pleasanton, CA (2017)
 Q-Chem 5.0.1 for Intel X86 EM64T Linux

User input:
--------------------------------------------------------------
$molecule
0  1
O -3.94934 -3.66094 2.70899
C -3.26408 -4.56952 2.26188
C -3.36658 -6.02376 2.66595
C -3.63629 -7.04588 1.54953
C -3.59671 -6.52161 0.1312
O -2.31093 -6.52611 -0.32944
C -2.22398 -6.46483 -1.757
C -1.38745 -5.26227 -2.1815
O -0.42657 -4.94967 -1.16078
C -0.48513 -3.68596 -0.67217
C 0.29832 -2.69724 -1.50242
C 1.03629 -1.61745 -0.6976
C 1.18116 -1.88347 0.7873
O 1.98902 -1.3429 1.52873
O -2.86348 -4.27838 1.00234
O -0.03812 -1.73853 1.39695
O -0.58706 -3.70789 0.52222
C -0.30868 -1.78244 2.75866
C 1.47391 -3.28938 -2.31962
C 1.80447 -2.36513 -3.49099
C 2.44429 -1.2044 -2.76265
C 2.43769 -1.74424 -1.32927
O 2.59114 -3.13291 -1.48432
H -0.44004 -2.24298 -2.19987
H 0.62442 -0.59112 -0.82446
H 1.30193 -4.31369 -2.70995
H 2.58566 -2.8716 -4.10219
H 0.94329 -2.10244 -4.1426
H 3.48876 -1.09282 -3.12977
H 1.90644 -0.23493 -2.84451
H 3.22511 -1.23445 -0.73134
O -4.59992 -6.44931 -0.56904
C -3.33773 -3.16912 0.29417
C -2.03969 -6.57062 3.22862
C -2.32068 -7.75403 4.15338
C -2.74018 -8.80642 3.14649
C -2.49634 -8.04856 1.83582
O -1.41575 -7.19686 2.13437
H -4.13943 -6.07136 3.46682
H -4.6367 -7.51618 1.6813
H -3.0238 -2.22635 0.79233
H -1.43897 -5.79962 3.75957
H -1.3451 -8.05736 4.59693
H -3.04844 -7.56186 4.97085
H -2.0475 -9.67262 3.23529
H -3.79362 -9.15094 3.23003
H -2.34572 -8.76206 0.99587
H -4.44662 -3.20614 0.22757
H -2.96706 -3.1627 -0.74184
H -1.06365 -2.57059 2.95454
H -0.72248 -0.80543 3.0828
H 0.59285 -2.01785 3.36454
H -0.89731 -5.45931 -3.15868
H -2.08387 -4.41066 -2.3441
H -3.16058 -6.52091 -2.35534
H -1.63886 -7.36726 -2.03543
$end

$opt
CONSTRAINT
tors           1           2           3           4    +123.158
tors           3           4           5           6     +85.263
tors           4           5           6           7    +161.053
tors           5           6           7           8    +123.158
tors           6           7           8           9     +28.421
tors           7           8           9          10    -123.158
tors           8           9          10          11     -85.263
tors           9          10          11          12    -142.105
tors          11          12          13          14    +161.053
ENDCONSTRAINT
$end

$rem
JOBTYPE                   OPT
METHOD                    B3LYP
DFT_D                     d3_op
BASIS                     STO-3G
GEOM_OPT_MAX_CYCLES       100
GEOM_OPT_TOL_GRADIENT     300
GEOM_OPT_TOL_DISPLACEMENT 1200
GEOM_OPT_TOL_ENERGY       100
SYMMETRY                  False
THRESH                    12
SCF_CONVERGENCE           8
MAX_SUB_FILE_NUM          128
MEM_STATIC                400
MEM_TOTAL                 4000
$end
--------------------------------------------------------------

   16   -1510.0246270961      4.17E-09 Convergence criterion met
 Total energy in the final basis set = -1510.02462710
   14   -1510.1110511396      8.01E-09 Convergence criterion met
 Total energy in the final basis set = -1510.11105114
   14   -1510.1564999267      8.30E-09 Convergence criterion met
 Total energy in the final basis set = -1510.15649993
   15   -1510.1878236593      2.28E-09 Convergence criterion met
 Total energy in the final basis set = -1510.18782366
   14   -1510.2033956375      5.07E-09 Convergence criterion met
 Total energy in the final basis set = -1510.20339564
   14   -1510.2148833808      3.65E-09 Convergence criterion met
 Total energy in the final basis set = -1510.21488338
   14   -1510.2220689340      2.30E-09 Convergence criterion met
 Total energy in the final basis set = -1510.22206893
   13   -1510.2270009987      4.06E-09 Convergence criterion met
   12   -1510.2397110001      4.19E-09 Convergence criterion met
 Total energy in the final basis set = -1510.23971100
   12   -1510.2397874443      4.74E-09 Convergence criterion met
 Total energy in the final basis set = -1510.23978744
   11   -1510.2398208906      7.21E-09 Convergence criterion met
 Total energy in the final basis set = -1510.23982089
   11   -1510.2398327682      2.71E-09 Convergence criterion met
 Total energy in the final basis set = -1510.23983277
   11   -1510.2398464201      3.76E-09 Convergence criterion met
 Total energy in the final basis set = -1510.23984642
   11   -1510.2398515850      3.90E-09 Convergence criterion met
 Total energy in the final basis set = -1510.23985159

             Standard Nuclear Orientation (Angstroms)
    I     Atom           X                Y                Z
 ----------------------------------------------------------------
    1      O      -2.8162830089    -2.3293745031     1.9483573929
    2      C      -2.5817359856    -1.3779553331     1.1673890504
    3      C      -3.5130716903    -0.9072019606     0.0029056963
    4      C      -3.9449003579     0.6194977678     0.0905359046
    5      C      -2.9082486905     1.5073333296     0.8809672876
    6      O      -1.8569531827     1.9505678029    -0.0005557580
    7      C      -1.1750023273     3.1156957269     0.6103349712
    8      C       0.3629604560     2.7821497283     0.7434181870
    9      O       0.7444838922     1.8245928984    -0.3259412446
   10      C       1.3323688866     0.6070304271     0.1947282097
   11      C       2.8999033965     0.6909725275     0.4738807398
   12      C       3.6568992073    -0.6428935674     0.1092823370
   13      C       2.9573840945    -2.0281804949     0.3481258212
   14      O       3.3009743135    -3.1008284244    -0.1973825546
   15      O      -1.4877062237    -0.4734190427     1.3186023111
   16      O       2.1180080689    -1.9774549035     1.5182346430
   17      O       0.7190660940    -0.4656216011     0.0148293732
   18      C       1.5847490841    -3.3292348750     1.8137086278
   19      C       3.4662206854     1.6149737523    -0.6892481766
   20      C       5.0378896055     1.7652656668    -0.5914666037
   21      C       5.5262025528     0.4142779049    -1.2377121968
   22      C       4.1506461196    -0.3439570873    -1.3731700268
   23      O       3.2503914363     0.7265871165    -1.8615199016
   24      H       3.1251342946     1.0510034943     1.4937729898
   25      H       4.5516029265    -0.6956243550     0.7605818973
   26      H       2.9009986588     2.5570964818    -0.8191708179
   27      H       5.3793802795     2.6405278596    -1.1659113639
   28      H       5.3731176844     1.8772680752     0.4524190065
   29      H       5.9697667837     0.5830761641    -2.2321619729
   30      H       6.2513683036    -0.1279246440    -0.6101085289
   31      H       4.1363632322    -1.2194481794    -2.0510597554
   32      O      -3.0367626725     1.9000785357     2.0637941108
   33      C      -0.7127944783    -0.7833250477     2.5462858641
   34      C      -2.9908173423    -1.0035598503    -1.5015898039
   35      C      -4.2738148968    -1.2443239753    -2.3894882263
   36      C      -4.9868959959     0.1529634312    -2.2434794066
   37      C      -3.8953200709     0.9858412700    -1.4537500760
   38      O      -2.6092403575     0.3753627014    -1.8692162885
   39      H      -4.4141271569    -1.5394826313     0.1004135750
   40      H      -4.9386130744     0.7415268709     0.5558203603
   41      H       0.3322489583    -1.0163088276     2.2544114683
   42      H      -2.1459648730    -1.6997494561    -1.6662619231
   43      H      -3.9831030698    -1.4384000205    -3.4346065783
   44      H      -4.8909319576    -2.0831410999    -2.0301094317
   45      H      -5.1874041899     0.6122768926    -3.2240890125
   46      H      -5.9353240373     0.0860285202    -1.6860289026
   47      H      -3.8920770557     2.0721073463    -1.6653142140
   48      H      -1.1767197977    -1.6490471176     3.0591963009
   49      H      -0.7370548526     0.1086029764     3.2024912683
   50      H       0.5482529923    -3.4195915164     1.4306062015
   51      H       1.5817895373    -3.4544191299     2.9127013855
   52      H       2.2206536722    -4.0978693752     1.3314117868
   53      H       0.9559140864     3.7180290608     0.6318908558
   54      H       0.5649758858     2.3676228614     1.7528141766
   55      H      -1.6230339666     3.3202267089     1.6069516726
   56      H      -1.3226493913     3.9821758470    -0.0676570988
 ----------------------------------------------------------------

   11   -1510.2398519709      3.35E-09 Convergence criterion met
 Total energy in the final basis set = -1510.23985197
 Final energy is   -1510.23985197085
 **  OPTIMIZATION CONVERGED  **

                    Orbital Energies (a.u.)
 --------------------------------------------------------------

 Alpha MOs
 -- Occupied --
-18.932 -18.932 -18.922 -18.901 -18.897 -18.886 -18.882 -18.874
-18.868 -18.862 -10.101 -10.100 -10.094 -10.091 -10.071 -10.059
-10.059 -10.058 -10.056 -10.054 -10.054 -10.045 -10.039 -10.038
-10.034 -10.031 -10.022 -10.020 -10.016 -10.014  -1.011  -1.008
 -1.000  -0.996  -0.969  -0.962  -0.936  -0.932  -0.929  -0.920
 -0.763  -0.757  -0.723  -0.719  -0.707  -0.701  -0.691  -0.658
 -0.651  -0.605  -0.598  -0.576  -0.545  -0.540  -0.538  -0.531
 -0.513  -0.504  -0.487  -0.469  -0.462  -0.461  -0.454  -0.434
 -0.430  -0.428  -0.421  -0.415  -0.407  -0.404  -0.401  -0.396
 -0.395  -0.378  -0.369  -0.365  -0.356  -0.352  -0.350  -0.343
 -0.342  -0.336  -0.334  -0.329  -0.326  -0.324  -0.319  -0.313
 -0.307  -0.302  -0.301  -0.295  -0.292  -0.284  -0.280  -0.273
 -0.272  -0.250  -0.241  -0.235  -0.234  -0.225  -0.224  -0.178
 -0.166  -0.163  -0.158  -0.154  -0.151  -0.145  -0.144  -0.141
 -0.133

          Ground-State Mulliken Net Atomic Charges

     Atom                 Charge (a.u.)
  ----------------------------------------
      1 O                    -0.217799
      2 C                     0.209458
      3 C                    -0.080145
      4 C                    -0.077394
      5 C                     0.213555
      6 O                    -0.154374
      7 C                    -0.054831
      8 C                    -0.045417
      9 O                    -0.183739
     10 C                     0.222957
     11 C                    -0.080373
     12 C                    -0.079821
     13 C                     0.216302
     14 O                    -0.214948
     15 O                    -0.160556
     16 O                    -0.170794
     17 O                    -0.167965
     18 C                    -0.135645
     19 C                     0.022475
     20 C                    -0.146844
     21 C                    -0.140987
     22 C                     0.023815
     23 O                    -0.188701
     24 H                     0.079977
     25 H                     0.083430
     26 H                     0.089334
     27 H                     0.078581
     28 H                     0.071927
     29 H                     0.078840
     30 H                     0.073454
     31 H                     0.090952
     32 O                    -0.227200
     33 C                    -0.144636
     34 C                     0.027376
     35 C                    -0.141521
     36 C                    -0.146099
     37 C                     0.027359
     38 O                    -0.176886
     39 H                     0.082934
     40 H                     0.085073
     41 H                     0.101010
     42 H                     0.088622
     43 H                     0.077704
     44 H                     0.072924
     45 H                     0.077191
     46 H                     0.072042
     47 H                     0.083137
     48 H                     0.097697
     49 H                     0.080782
     50 H                     0.089558
     51 H                     0.085699
     52 H                     0.100701
     53 H                     0.075625
     54 H                     0.077783
     55 H                     0.098045
     56 H                     0.080357
  ----------------------------------------
  Sum of atomic charges =     0.000000

                    Cartesian Multipole Moments
 -----------------------------------------------------------------
    Charge (ESU x 10^10)
                -0.0000
    Dipole Moment (Debye)
         X       1.2825      Y       1.9110      Z       1.4861
       Tot       2.7396
    Quadrupole Moments (Debye-Ang)
        XX    -142.9972     XY       4.3763     YY    -156.2719
        XZ      13.2392     YZ       1.6599     ZZ    -163.5103

 Total job time:  101.05s(wall), 4822.41s(cpu)
        *  Thank you very much for using Q-Chem.  Have a nice day.  *
