 Q-Chem 5.0, Q-Chem, Inc., Pleasanton, CA (2017)
 Q-Chem 5.0.1 for Intel X86 EM64T Linux

User input:
--------------------------------------------------------------
$molecule
0  1
O -2.8162830089 -2.3293745031 1.9483573929
C -2.5817359856 -1.3779553331 1.1673890504
C -3.5130716903 -0.9072019606 0.0029056963
C -3.9449003579 0.6194977678 0.0905359046
C -2.9082486905 1.5073333296 0.8809672876
O -1.8569531827 1.9505678029 -0.000555758
C -1.1750023273 3.1156957269 0.6103349712
C 0.362960456 2.7821497283 0.743418187
O 0.7444838922 1.8245928984 -0.3259412446
C 1.3323688866 0.6070304271 0.1947282097
C 2.8999033965 0.6909725275 0.4738807398
C 3.6568992073 -0.6428935674 0.109282337
C 2.9573840945 -2.0281804949 0.3481258212
O 3.3009743135 -3.1008284244 -0.1973825546
O -1.4877062237 -0.4734190427 1.3186023111
O 2.1180080689 -1.9774549035 1.518234643
O 0.719066094 -0.4656216011 0.0148293732
C 1.5847490841 -3.329234875 1.8137086278
C 3.4662206854 1.6149737523 -0.6892481766
C 5.0378896055 1.7652656668 -0.5914666037
C 5.5262025528 0.4142779049 -1.2377121968
C 4.1506461196 -0.3439570873 -1.3731700268
O 3.2503914363 0.7265871165 -1.8615199016
H 3.1251342946 1.0510034943 1.4937729898
H 4.5516029265 -0.695624355 0.7605818973
H 2.9009986588 2.5570964818 -0.8191708179
H 5.3793802795 2.6405278596 -1.1659113639
H 5.3731176844 1.8772680752 0.4524190065
H 5.9697667837 0.5830761641 -2.2321619729
H 6.2513683036 -0.127924644 -0.6101085289
H 4.1363632322 -1.2194481794 -2.0510597554
O -3.0367626725 1.9000785357 2.0637941108
C -0.7127944783 -0.7833250477 2.5462858641
C -2.9908173423 -1.0035598503 -1.5015898039
C -4.2738148968 -1.2443239753 -2.3894882263
C -4.9868959959 0.1529634312 -2.2434794066
C -3.8953200709 0.98584127 -1.453750076
O -2.6092403575 0.3753627014 -1.8692162885
H -4.4141271569 -1.5394826313 0.100413575
H -4.9386130744 0.7415268709 0.5558203603
H 0.3322489583 -1.0163088276 2.2544114683
H -2.145964873 -1.6997494561 -1.6662619231
H -3.9831030698 -1.4384000205 -3.4346065783
H -4.8909319576 -2.0831410999 -2.0301094317
H -5.1874041899 0.6122768926 -3.2240890125
H -5.9353240373 0.0860285202 -1.6860289026
H -3.8920770557 2.0721073463 -1.665314214
H -1.1767197977 -1.6490471176 3.0591963009
H -0.7370548526 0.1086029764 3.2024912683
H 0.5482529923 -3.4195915164 1.4306062015
H 1.5817895373 -3.4544191299 2.9127013855
H 2.2206536722 -4.0978693752 1.3314117868
H 0.9559140864 3.7180290608 0.6318908558
H 0.5649758858 2.3676228614 1.7528141766
H -1.6230339666 3.3202267089 1.6069516726
H -1.3226493913 3.982175847 -0.0676570988
$end

$rem
JOBTYPE                   OPT
METHOD                    B3LYP
DFT_D                     d3_op
BASIS                     STO-3G
GEOM_OPT_MAX_CYCLES       100
GEOM_OPT_TOL_GRADIENT     300
GEOM_OPT_TOL_DISPLACEMENT 1200
GEOM_OPT_TOL_ENERGY       100
SYMMETRY                  False
THRESH                    12
SCF_CONVERGENCE           8
MAX_SUB_FILE_NUM          128
MEM_STATIC                400
MEM_TOTAL                 4000
$end
--------------------------------------------------------------

   16   -1510.2399747888      5.80E-09 Convergence criterion met
 Total energy in the final basis set = -1510.23997479
   14   -1510.2471119250      9.10E-09 Convergence criterion met
 Total energy in the final basis set = -1510.24711192
   15   -1510.2535221481      2.47E-09 Convergence criterion met
 Total energy in the final basis set = -1510.25352215
   13   -1510.2582837542      5.47E-09 Convergence criterion met
 Total energy in the final basis set = -1510.25828375
   14   -1510.2592537816      5.56E-09 Convergence criterion met
 Total energy in the final basis set = -1510.25925378
   13   -1510.2607154338      9.06E-09 Convergence criterion met
 Total energy in the final basis set = -1510.26071543
   13   -1510.2653949253      6.46E-09 Convergence criterion met
 Total energy in the final basis set = -1510.26539493
   13   -1510.2666708095      8.10E-09 Convergence criterion met
   12   -1510.2841693776      3.63E-09 Convergence criterion met
 Total energy in the final basis set = -1510.28416938
   12   -1510.2841900374      3.62E-09 Convergence criterion met
 Total energy in the final basis set = -1510.28419004
   12   -1510.2841990498      4.98E-09 Convergence criterion met
 Total energy in the final basis set = -1510.28419905
   10   -1510.2842131080      8.43E-09 Convergence criterion met
 Total energy in the final basis set = -1510.28421311
    9   -1510.2842180345      5.93E-09 Convergence criterion met
 Total energy in the final basis set = -1510.28421803
    9   -1510.2842195349      4.59E-09 Convergence criterion met
 Total energy in the final basis set = -1510.28421953

             Standard Nuclear Orientation (Angstroms)
    I     Atom           X                Y                Z
 ----------------------------------------------------------------
    1      O      -2.2250567284    -1.9700637601     2.7033965652
    2      C      -2.2970318705    -1.4709583472     1.5592429251
    3      C      -3.6041550735    -1.0276827643     0.8044898037
    4      C      -3.6523800143     0.5152232920     0.4414648952
    5      C      -2.4563899417     1.3205171530     1.0560420937
    6      O      -2.1832848468     2.4614629653     0.2379976970
    7      C      -1.0338119624     3.2326324582     0.7695012686
    8      C       0.3068937884     2.4178774245     0.7206506226
    9      O       0.4285338361     1.9068987201    -0.6626100315
   10      C       1.4846500965     0.9618917124    -0.8716404887
   11      C       2.5952627967     0.7768028575     0.2303306092
   12      C       3.5195134673    -0.4708334296    -0.0737256000
   13      C       3.0763880281    -1.3284960969    -1.3182568390
   14      O       3.6860054255    -1.4795213048    -2.3960361698
   15      O      -1.1878803063    -1.3007212591     0.6721464800
   16      O       1.9226182001    -2.0992737620    -0.9258124910
   17      O       1.5108092141     0.3767373375    -1.9798978084
   18      C       1.3725790412    -2.8370585595    -2.0815764430
   19      C       3.6624147003     1.9577650336     0.1348339566
   20      C       4.5921014401     1.8974679309     1.4121014153
   21      C       5.5155343782     0.6719558792     1.0585518889
   22      C       4.9141563812     0.2324939201    -0.3327961729
   23      O       4.5415286130     1.5184895415    -0.9683413234
   24      H       2.1488157390     0.7060578181     1.2351862583
   25      H       3.5585953075    -1.1407523551     0.8039514219
   26      H       3.2331374991     2.9535959152    -0.0896326447
   27      H       5.1727812170     2.8285228929     1.5096190594
   28      H       4.0150600753     1.7417671717     2.3379075009
   29      H       6.5672319359     0.9794987496     0.9455273309
   30      H       5.4597283714    -0.1330309113     1.8088637203
   31      H       5.5899338260    -0.3412896852    -0.9961561635
   32      O      -1.8358569424     1.0480001025     2.1089023122
   33      C       0.0711134262    -1.7303097736     1.3209833074
   34      C      -3.6717600495    -1.6624318402    -0.6505152774
   35      C      -5.1309193084    -1.4637196411    -1.2282346104
   36      C      -5.1001461561     0.0605985720    -1.6208579970
   37      C      -3.6491556766     0.4627568401    -1.1476139452
   38      O      -2.8448131422    -0.7388663809    -1.4599871201
   39      H      -4.4670799224    -1.3214121699     1.4271082430
   40      H      -4.5877578108     0.9749764424     0.8127650955
   41      H       0.8243759366    -1.8190292636     0.5019157972
   42      H      -3.2774127245    -2.6947021261    -0.7181328310
   43      H      -5.2878441862    -2.1058520268    -2.1094370616
   44      H      -5.9062982134    -1.6947325051    -0.4803963613
   45      H      -5.1987716790     0.1978394773    -2.7095066202
   46      H      -5.8843033587     0.6485316402    -1.1176484931
   47      H      -3.2141371064     1.3608635693    -1.6267930549
   48      H      -0.0543290926    -2.7028894249     1.8368699974
   49      H       0.3989372885    -0.9831227417     2.0728574441
   50      H       1.0459133420    -2.1384304339    -2.8788092323
   51      H       0.4989885265    -3.3970088570    -1.7001919277
   52      H       2.1164708131    -3.5429878757    -2.5042794215
   53      H       1.1515766070     3.0855389993     0.9983331717
   54      H       0.2327896794     1.5906807418     1.4575947608
   55      H      -1.2163560685     3.5521903545     1.8193536906
   56      H      -0.9647385274     4.1277147895     0.1196856425
 ----------------------------------------------------------------

    9   -1510.2842199256      4.51E-09 Convergence criterion met
 Total energy in the final basis set = -1510.28421993
 Final energy is   -1510.28421992556
 **  OPTIMIZATION CONVERGED  **

                    Orbital Energies (a.u.)
 --------------------------------------------------------------

 Alpha MOs
 -- Occupied --
-18.947 -18.944 -18.927 -18.915 -18.893 -18.887 -18.884 -18.883
-18.867 -18.857 -10.109 -10.109 -10.097 -10.088 -10.085 -10.085
-10.069 -10.061 -10.056 -10.055 -10.055 -10.045 -10.038 -10.038
-10.033 -10.031 -10.027 -10.024 -10.018 -10.017  -1.024  -1.014
 -1.001  -0.994  -0.976  -0.966  -0.949  -0.942  -0.929  -0.920
 -0.767  -0.761  -0.730  -0.726  -0.716  -0.710  -0.699  -0.656
 -0.644  -0.617  -0.604  -0.586  -0.551  -0.543  -0.542  -0.534
 -0.520  -0.510  -0.493  -0.472  -0.467  -0.461  -0.457  -0.451
 -0.438  -0.433  -0.430  -0.420  -0.407  -0.405  -0.401  -0.398
 -0.396  -0.390  -0.378  -0.367  -0.359  -0.356  -0.352  -0.349
 -0.344  -0.337  -0.336  -0.328  -0.326  -0.325  -0.318  -0.316
 -0.312  -0.310  -0.306  -0.302  -0.296  -0.282  -0.281  -0.277
 -0.272  -0.263  -0.250  -0.247  -0.239  -0.232  -0.230  -0.188
 -0.181  -0.169  -0.162  -0.159  -0.156  -0.150  -0.145  -0.139
 -0.137

          Ground-State Mulliken Net Atomic Charges

     Atom                 Charge (a.u.)
  ----------------------------------------
      1 O                    -0.219141
      2 C                     0.209368
      3 C                    -0.080206
      4 C                    -0.078082
      5 C                     0.217069
      6 O                    -0.164326
      7 C                    -0.043349
      8 C                    -0.051044
      9 O                    -0.164246
     10 C                     0.218672
     11 C                    -0.084623
     12 C                    -0.080900
     13 C                     0.223391
     14 O                    -0.210995
     15 O                    -0.174119
     16 O                    -0.179031
     17 O                    -0.189834
     18 C                    -0.126021
     19 C                     0.023414
     20 C                    -0.144400
     21 C                    -0.143707
     22 C                     0.025173
     23 O                    -0.186091
     24 H                     0.081953
     25 H                     0.083911
     26 H                     0.079599
     27 H                     0.078959
     28 H                     0.072406
     29 H                     0.079522
     30 H                     0.074313
     31 H                     0.092174
     32 O                    -0.216779
     33 C                    -0.149777
     34 C                     0.026593
     35 C                    -0.144721
     36 C                    -0.143670
     37 C                     0.024806
     38 O                    -0.183770
     39 H                     0.082582
     40 H                     0.084637
     41 H                     0.111446
     42 H                     0.082284
     43 H                     0.077348
     44 H                     0.072852
     45 H                     0.078144
     46 H                     0.072007
     47 H                     0.093568
     48 H                     0.081013
     49 H                     0.068263
     50 H                     0.098918
     51 H                     0.090631
     52 H                     0.087670
     53 H                     0.081455
     54 H                     0.098215
     55 H                     0.090748
     56 H                     0.095728
  ----------------------------------------
  Sum of atomic charges =     0.000000

                    Cartesian Multipole Moments
 -----------------------------------------------------------------
    Charge (ESU x 10^10)
                 0.0000
    Dipole Moment (Debye)
         X      -0.8530      Y       1.7900      Z       2.5783
       Tot       3.2526
    Quadrupole Moments (Debye-Ang)
        XX    -148.4283     XY      -0.6574     YY    -149.0450
        XZ      16.9574     YZ       9.3112     ZZ    -174.9014

 Total job time:  136.91s(wall), 6534.95s(cpu)
        *  Thank you very much for using Q-Chem.  Have a nice day.  *
