 Q-Chem 5.0, Q-Chem, Inc., Pleasanton, CA (2017)
 Q-Chem 5.0.1 for Intel X86 EM64T Linux

User input:
--------------------------------------------------------------
$molecule
0  1
O 1.2871334095 -2.418199533 0.0556153722
C 0.0505430848 -1.9108888253 0.5971095834
C -1.3619440278 1.2115219979 -0.5820705984
C -2.8550208256 0.7751871959 -0.5336863649
C -3.2265705229 -0.5555872195 0.2225266289
O -2.4198122683 -1.6917587567 -0.088206147
C -1.0467552981 -2.0219140248 -0.2115989518
C -0.8287882094 -2.5775851575 -1.639660036
O 0.4509702936 -2.2012984952 -2.2916713327
C 1.534031736 -1.9914486991 -1.3303512907
C 2.7774411266 -1.1762126562 -1.7467482038
C 1.5410901772 1.1241422911 -0.0074362874
C 0.5289917953 1.2836214514 0.8808461638
O -0.8119878735 0.8371660026 0.733379451
O 0.0901029758 -1.4164981688 1.9264246019
O 0.8179636715 1.7250343075 2.197235167
O 2.7485030329 -2.6599265646 -1.8372043464
C -0.2186891213 1.2751270435 3.1518145074
C 3.9195567653 -0.6150432047 -0.7946334367
C 4.6157010847 0.6723085443 -1.3879883851
C 3.9461298185 1.8576412575 -0.6149452756
C 2.9978624157 1.1530503745 0.428254205
O 3.4911366204 -0.2535918927 0.5639234997
H 2.6889295162 -0.6393929164 -2.7169902425
H 1.312222483 0.8323530613 -1.0328006109
H 4.6472766076 -1.4512010722 -0.6792322328
H 5.6939206837 0.6346650917 -1.1678472303
H 4.4903465787 0.7424837596 -2.4804810977
H 4.6990536109 2.4774595772 -0.1058205761
H 3.3604336941 2.5101321877 -1.2795136698
H 3.0681799882 1.5937379492 1.4435252193
O -4.2641912632 -0.7386567308 0.888383592
C 1.0230152107 -2.2320315554 2.7483195954
C -1.5578527259 2.7903384698 -0.6253881811
C -2.3631481243 3.2025075903 -1.9247931604
C -3.8456009936 2.8961586408 -1.48245834
C -3.582528189 2.1293849439 -0.1266432614
O -2.5213566056 2.960023897 0.4911480321
H -0.7966820945 0.7778048134 -1.4360696537
H -3.1509455278 0.5446091423 -1.5782253127
H 1.1874014018 -1.6570588758 3.6776683476
H -0.6251089318 3.3538168481 -0.4316819475
H -2.2162229885 4.2670406607 -2.1615735055
H -2.0472684181 2.6064449075 -2.7972231443
H -4.4013734905 3.8283166229 -1.2917887617
H -4.4040437049 2.2978118201 -2.2202912287
H -4.4463932285 2.0177304372 0.5575927296
H 1.9873393284 -2.3957985996 2.2293489256
H 0.5704250957 -3.2118698787 3.0074127783
H 0.1997123578 1.4912453093 4.1505230432
H -0.4128744817 0.1902151027 3.0337418974
H -1.1638953736 1.8351294148 3.0196300253
H -0.8808522594 -3.6934035943 -1.6110095531
H -1.632985105 -2.2060709942 -2.3026606015
H -1.3231564374 -4.7567263635 0.8488268801
H -1.4410721443 -5.4702792769 0.9371413523
$end

$rem
JOBTYPE                   OPT
METHOD                    B3LYP
DFT_D                     d3_op
BASIS                     STO-3G
GEOM_OPT_MAX_CYCLES       100
GEOM_OPT_TOL_GRADIENT     300
GEOM_OPT_TOL_DISPLACEMENT 1200
GEOM_OPT_TOL_ENERGY       100
SYMMETRY                  False
THRESH                    12
SCF_CONVERGENCE           8
MAX_SUB_FILE_NUM          128
MEM_STATIC                400
MEM_TOTAL                 4000
$end
--------------------------------------------------------------

   15   -1510.1119169028      7.55E-09 Convergence criterion met
 Total energy in the final basis set = -1510.11191690
   12   -1510.1213002773      5.41E-09 Convergence criterion met
 Total energy in the final basis set = -1510.12130028
   12   -1510.1284326876      7.62E-09 Convergence criterion met
 Total energy in the final basis set = -1510.12843269
   12   -1510.1358692764      7.96E-09 Convergence criterion met
 Total energy in the final basis set = -1510.13586928
   12   -1510.1424939550      8.74E-09 Convergence criterion met
 Total energy in the final basis set = -1510.14249395
   13   -1510.1490872166      3.15E-09 Convergence criterion met
 Total energy in the final basis set = -1510.14908722
   13   -1510.1544988164      5.09E-09 Convergence criterion met
 Total energy in the final basis set = -1510.15449882
   13   -1510.1592106351      4.19E-09 Convergence criterion met
    9   -1510.1779312795      9.36E-09 Convergence criterion met
 Total energy in the final basis set = -1510.17793128
   10   -1510.1779365650      6.79E-09 Convergence criterion met
 Total energy in the final basis set = -1510.17793656
   10   -1510.1779324700      4.22E-09 Convergence criterion met
 Total energy in the final basis set = -1510.17793247
    9   -1510.1779467776      7.90E-09 Convergence criterion met
 Total energy in the final basis set = -1510.17794678
   10   -1510.1779649705      2.98E-09 Convergence criterion met
 Total energy in the final basis set = -1510.17796497
    9   -1510.1779732719      4.71E-09 Convergence criterion met
 Total energy in the final basis set = -1510.17797327

             Standard Nuclear Orientation (Angstroms)
    I     Atom           X                Y                Z
 ----------------------------------------------------------------
    1      O       2.0113612353     1.7619149827     0.2258140461
    2      C       0.7881794882     1.9537636832    -0.4880867077
    3      C      -1.5946294387    -0.5186287435     0.5280050090
    4      C      -2.6981863738     0.5859894708     0.7474169522
    5      C      -2.7125037366     1.6690624348    -0.3948988413
    6      O      -1.5811218352     2.5857050368    -0.4914920308
    7      C      -0.3655286930     2.2502960602     0.1956873169
    8      C      -0.1560794961     2.2692064943     1.7198087847
    9      O       0.5176112260     0.9762760065     2.0892520569
   10      C       1.8228785903     0.9647562411     1.4532978850
   11      C       2.7044174572    -0.2564902659     1.6694147656
   12      C       0.8690457031    -1.6913342741    -0.3584563434
   13      C      -0.0018240291    -1.0702385072    -1.2067033029
   14      O      -1.2313294357    -0.4419861561    -0.9051053024
   15      O       0.8824607323     1.9166231393    -1.8895541298
   16      O       0.3026422482    -1.0071458116    -2.5892542781
   17      O       3.0034580588     1.0637182972     2.3187431371
   18      C      -0.6689886999    -0.1697560978    -3.3336803528
   19      C       3.7091579008    -0.7774209554     0.5672349595
   20      C       4.1235670970    -2.2674475841     0.8472013393
   21      C       3.0114231802    -3.0919171963     0.1111225521
   22      C       2.2811575661    -2.0400399021    -0.8187380583
   23      O       3.1538653883    -0.8127342427    -0.7983881399
   24      H       2.3245142958    -1.0342134888     2.3618675895
   25      H       0.6259433105    -1.8079287933     0.6961893627
   26      H       4.5760485142    -0.0824559555     0.5387656629
   27      H       5.1116995773    -2.4604379377     0.3996179073
   28      H       4.1756669229    -2.4925688033     1.9244836857
   29      H       3.4469827904    -3.9084076064    -0.4852992267
   30      H       2.2982930662    -3.5305673989     0.8272850923
   31      H       2.2726243008    -2.3554422759    -1.8840531314
   32      O      -3.6633859902     1.8688103794    -1.1754219120
   33      C       2.2235962171     1.4400299996    -2.3334720776
   34      C      -2.4475942698    -1.8346504003     0.7622385827
   35      C      -2.9113667846    -1.8940675974     2.2720216352
   36      C      -4.1160412193    -0.8798304191     2.2691567347
   37      C      -4.0130836220    -0.3046319240     0.8029893348
   38      O      -3.6813320336    -1.5089247092     0.0050111210
   39      H      -0.7166460583    -0.3555876916     1.1969338963
   40      H      -2.5482764720     1.0929075601     1.7143131806
   41      H       2.0869898428     1.1683044206    -3.3956625343
   42      H      -1.9754359424    -2.7543273775     0.3662108116
   43      H      -3.2342506055    -2.9119136109     2.5409150419
   44      H      -2.1043993542    -1.5865925362     2.9572888409
   45      H      -5.0775149885    -1.3997220323     2.4078291160
   46      H      -4.0208261780    -0.0983310119     3.0398225660
   47      H      -4.9190580812     0.1900865626     0.4021019178
   48      H       2.5754794190     0.5554673591    -1.7351685148
   49      H       2.9611046641     2.2651787763    -2.2620823091
   50      H      -0.3335573526    -0.2177144618    -4.3861701339
   51      H      -0.6297158899     0.8803009816    -2.9753415131
   52      H      -1.7037423672    -0.5597009993    -3.2570776520
   53      H       0.4816479451     3.1221633827     2.0437617489
   54      H      -1.1018356096     2.3043230764     2.2915708269
   55      H      -1.5026836927     3.4384815036    -2.3359233120
   56      H      -1.4832505133     3.7588698591    -2.9943010306
 ----------------------------------------------------------------

   10   -1510.1779735334      3.04E-09 Convergence criterion met
 Total energy in the final basis set = -1510.17797353
 Final energy is   -1510.17797353344
 **  OPTIMIZATION CONVERGED  **

                    Orbital Energies (a.u.)
 --------------------------------------------------------------

 Alpha MOs
 -- Occupied --
-18.961 -18.951 -18.948 -18.945 -18.944 -18.935 -18.919 -18.896
-18.893 -18.892 -10.153 -10.112 -10.098 -10.087 -10.086 -10.076
-10.074 -10.067 -10.065 -10.065 -10.058 -10.052 -10.044 -10.040
-10.029 -10.029 -10.028 -10.026 -10.024  -9.955  -1.058  -1.022
 -1.012  -1.006  -0.978  -0.976  -0.960  -0.956  -0.953  -0.946
 -0.765  -0.745  -0.732  -0.731  -0.722  -0.703  -0.684  -0.667
 -0.643  -0.622  -0.611  -0.596  -0.583  -0.558  -0.550  -0.549
 -0.541  -0.518  -0.497  -0.489  -0.481  -0.476  -0.472  -0.453
 -0.445  -0.439  -0.436  -0.428  -0.422  -0.415  -0.410  -0.404
 -0.397  -0.389  -0.384  -0.380  -0.372  -0.370  -0.367  -0.358
 -0.357  -0.353  -0.346  -0.343  -0.336  -0.328  -0.324  -0.317
 -0.315  -0.314  -0.311  -0.309  -0.298  -0.295  -0.286  -0.279
 -0.265  -0.259  -0.253  -0.250  -0.244  -0.240  -0.228  -0.210
 -0.192  -0.187  -0.183  -0.171  -0.167  -0.149  -0.148  -0.118
 -0.116

          Ground-State Mulliken Net Atomic Charges

     Atom                 Charge (a.u.)
  ----------------------------------------
      1 O                    -0.169975
      2 C                     0.159047
      3 C                     0.020911
      4 C                    -0.089013
      5 C                     0.226089
      6 O                    -0.160709
      7 C                     0.006463
      8 C                    -0.061556
      9 O                    -0.177836
     10 C                     0.224419
     11 C                    -0.024201
     12 C                    -0.170422
     13 C                     0.162829
     14 O                    -0.178085
     15 O                    -0.158747
     16 O                    -0.169715
     17 O                    -0.168189
     18 C                    -0.130758
     19 C                     0.026933
     20 C                    -0.140855
     21 C                    -0.142451
     22 C                     0.022135
     23 O                    -0.189960
     24 H                     0.084468
     25 H                     0.059512
     26 H                     0.089858
     27 H                     0.080822
     28 H                     0.077366
     29 H                     0.079377
     30 H                     0.075620
     31 H                     0.086263
     32 O                    -0.186902
     33 C                    -0.144838
     34 C                     0.016216
     35 C                    -0.146291
     36 C                    -0.142576
     37 C                     0.024373
     38 O                    -0.185853
     39 H                     0.101395
     40 H                     0.081886
     41 H                     0.085408
     42 H                     0.087926
     43 H                     0.080363
     44 H                     0.074471
     45 H                     0.080401
     46 H                     0.073181
     47 H                     0.093119
     48 H                     0.127451
     49 H                     0.078542
     50 H                     0.087394
     51 H                     0.107973
     52 H                     0.092170
     53 H                     0.091744
     54 H                     0.091748
     55 H                     0.015346
     56 H                    -0.034286
  ----------------------------------------
  Sum of atomic charges =    -0.000000

                    Cartesian Multipole Moments
 -----------------------------------------------------------------
    Charge (ESU x 10^10)
                -0.0000
    Dipole Moment (Debye)
         X       1.2536      Y      -2.2391      Z       3.2721
       Tot       4.1584
    Quadrupole Moments (Debye-Ang)
        XX    -164.5997     XY      -1.7495     YY    -163.9586
        XZ     -11.1505     YZ       1.3984     ZZ    -159.0068

 Total job time:  231.94s(wall), 11058.21s(cpu)
        *  Thank you very much for using Q-Chem.  Have a nice day.  *
