 Q-Chem 5.0, Q-Chem, Inc., Pleasanton, CA (2017)
 Q-Chem 5.0.1 for Intel X86 EM64T Linux

User input:
--------------------------------------------------------------
$molecule
0  1
O -6.4934259414 0.5280634093 1.5001393236
C -5.5635040406 0.6585793795 0.6725904059
C -4.5733526637 -0.4880925808 0.2489611519
C -3.4274491946 -0.2151588715 -0.8106855771
C -2.7176847743 1.1876391846 -0.501693877
O -1.6331109339 1.7315249149 -1.2811964506
C -0.2534407475 1.266972454 -1.4655778726
C 0.1985561041 -0.2177454948 -1.7966003327
O 1.5785058045 -0.1616980719 -2.3449125791
C 2.5720422562 -0.5912376634 -1.3748581849
C 2.7433174851 0.3366313995 -0.1185171837
C 3.8331272695 -0.1608963225 0.9168757797
C 4.6495584539 -1.4254851042 0.4488279536
O 4.4951552937 -2.5960100074 0.861015255
O -5.5043229277 1.7409582231 -0.2643501979
O 5.7045237125 -1.0072552678 -0.4248028996
O 3.3262996146 -1.5433950296 -1.6692006962
C 6.4431278065 -2.1914281873 -0.9156359481
C 3.2987975573 1.7809962636 -0.4959887485
C 2.9425685601 2.7507025023 0.6986285509
C 3.9629460242 2.2606248006 1.7920414678
C 4.746977343 1.1349196004 1.005178656
O 4.7645724299 1.6312303771 -0.391787069
H 1.7638941141 0.4276149145 0.382822206
H 3.3651827501 -0.4093526926 1.8855739185
H 3.0089646598 2.1369763277 -1.5041872715
H 3.12953362 3.797307785 0.410032733
H 1.8927350672 2.6544491904 1.0194232007
H 4.6480001466 3.067770016 2.0962365363
H 3.4637415859 1.8643991348 2.6908285136
H 5.7784500666 0.9443141433 1.358121321
O -3.1346170807 1.9373646527 0.4104177989
C -6.5667141962 2.7268245843 0.0364167577
C -3.8135045066 -1.300911419 1.3869495779
C -3.9573085294 -2.8165828755 0.9843240804
C -3.1514015027 -2.8037302509 -0.3686713037
C -2.4602231846 -1.3783842849 -0.3187199462
O -2.3740038197 -1.0560064325 1.1292835218
H -5.2610286423 -1.2050493667 -0.2410759162
H -3.76398301 -0.2943242959 -1.8598814094
H -6.3983824841 3.2182086952 1.0162772498
H -4.087239014 -1.0357992018 2.4263432302
H -3.4732702569 -3.4634326258 1.7338830711
H -5.005940601 -3.1307832197 0.8615448499
H -2.3882062893 -3.5970678011 -0.401061562
H -3.8042349677 -2.9114696142 -1.2500591116
H -1.463494028 -1.3743984236 -0.7712913192
H -7.5714361523 2.2565615277 0.045889189
H -6.5148064352 3.483330202 -0.768036791
H 7.2600195428 -1.8002245511 -1.5494809452
H 5.7860617546 -2.8494800704 -1.5205224133
H 6.8695071485 -2.7856086216 -0.0814740027
H 0.1667384245 -0.8535391127 -0.8917706544
H -0.4424743168 -0.6631434013 -2.586727371
H 0.3271117993 1.5806013394 -0.5680404178
H 0.1059438779 1.8874875971 -2.3154801615
$end

$rem
JOBTYPE                   OPT
METHOD                    B3LYP
DFT_D                     d3_op
BASIS                     STO-3G
GEOM_OPT_MAX_CYCLES       100
GEOM_OPT_TOL_GRADIENT     300
GEOM_OPT_TOL_DISPLACEMENT 1200
GEOM_OPT_TOL_ENERGY       100
SYMMETRY                  False
THRESH                    12
SCF_CONVERGENCE           8
MAX_SUB_FILE_NUM          128
MEM_STATIC                400
MEM_TOTAL                 4000
$end
--------------------------------------------------------------

   16   -1510.2020567627      4.58E-09 Convergence criterion met
 Total energy in the final basis set = -1510.20205676
   14   -1510.2084250544      2.46E-09 Convergence criterion met
 Total energy in the final basis set = -1510.20842505
   14   -1510.2157505579      2.33E-09 Convergence criterion met
 Total energy in the final basis set = -1510.21575056
   14   -1510.2226970110      3.01E-09 Convergence criterion met
 Total energy in the final basis set = -1510.22269701
   14   -1510.2295688108      5.38E-09 Convergence criterion met
 Total energy in the final basis set = -1510.22956881
   14   -1510.2344382043      3.84E-09 Convergence criterion met
 Total energy in the final basis set = -1510.23443820
   14   -1510.2389597921      2.27E-09 Convergence criterion met
 Total energy in the final basis set = -1510.23895979
   14   -1510.2417133418      2.55E-09 Convergence criterion met
   11   -1510.2630473258      7.47E-09 Convergence criterion met
 Total energy in the final basis set = -1510.26304733
   11   -1510.2630687337      7.69E-09 Convergence criterion met
 Total energy in the final basis set = -1510.26306873
   11   -1510.2630789496      2.39E-09 Convergence criterion met
 Total energy in the final basis set = -1510.26307895
   11   -1510.2630909345      6.47E-09 Convergence criterion met
 Total energy in the final basis set = -1510.26309093
   11   -1510.2630925660      4.41E-09 Convergence criterion met
 Total energy in the final basis set = -1510.26309257
    9   -1510.2630948366      6.47E-09 Convergence criterion met
 Total energy in the final basis set = -1510.26309484

             Standard Nuclear Orientation (Angstroms)
    I     Atom           X                Y                Z
 ----------------------------------------------------------------
    1      O      -6.0436114024     0.0752678132    -0.0215771859
    2      C      -4.9147391399    -0.2723461265    -0.4266374857
    3      C      -3.6470921231    -0.5917584181     0.4523797665
    4      C      -2.4070399032     0.3658616814     0.2239261574
    5      C      -2.7848355952     1.5875888830    -0.7012322159
    6      O      -1.7629870465     2.4670523028    -1.1976259116
    7      C      -0.3715557127     1.9863069753    -1.0655734650
    8      C      -0.0237545562     0.9133568147    -2.1796496364
    9      O       1.3618389833     1.0061823166    -2.6846386846
   10      C       2.3760319753     0.3310274540    -1.9177630251
   11      C       2.1282018147    -0.0169908231    -0.4026591657
   12      C       3.1369719821    -1.1166033813     0.1399647856
   13      C       4.0813649627    -1.7179167928    -0.9718542291
   14      O       3.7734522293    -2.6270302219    -1.7741217476
   15      O      -4.6041595548    -0.6312090118    -1.7826379744
   16      O       5.3888260653    -1.1506214859    -0.8524784888
   17      O       3.4700193171     0.1374927372    -2.4956241292
   18      C       6.2518266761    -1.6589982268    -1.9417265387
   19      C       2.5333447863     1.2290406186     0.5124987746
   20      C       1.9572240942     0.9840000300     1.9617849363
   21      C       2.9468272646    -0.1151469655     2.4973814067
   22      C       3.9073915194    -0.2956774389     1.2553892198
   23      O       3.9910830590     1.0684424635     0.6816670192
   24      H       1.0858706444    -0.3261090697    -0.2240923605
   25      H       2.5707709602    -1.9591176099     0.5767475297
   26      H       2.3038543404     2.2188060029     0.0732882165
   27      H       2.0146592613     1.9084163624     2.5580555533
   28      H       0.9120241035     0.6405900427     1.9426788887
   29      H       3.5107885821     0.2438282827     3.3726902171
   30      H       2.4348746398    -1.0527892012     2.7672446886
   31      H       4.9189314035    -0.6790779725     1.4869212403
   32      O      -3.9664926966     1.9008596411    -0.9747399683
   33      C      -5.7544004740    -0.3150991584    -2.6575747366
   34      C      -3.9394167310    -0.3639473363     1.9929661483
   35      C      -2.8808325531    -1.1855975209     2.8228114388
   36      C      -1.5802951810    -0.3387944460     2.5628677849
   37      C      -2.1578360637     0.8672327718     1.7160741100
   38      O      -3.5321502858     1.0430467948     2.2284182711
   39      H      -3.3545105715    -1.6381993198     0.2513097491
   40      H      -1.5458173851    -0.1910922309    -0.1788015500
   41      H      -5.9432151715     0.7776822498    -2.6911256979
   42      H      -5.0008076001    -0.5078450744     2.2740752975
   43      H      -3.1487348396    -1.1922016482     3.8913350165
   44      H      -2.7896012043    -2.2261125423     2.4724735005
   45      H      -1.1356975003     0.0264617028     3.5021789707
   46      H      -0.8155120357    -0.9064946642     2.0079436635
   47      H      -1.5911796464     1.8154167064     1.7988416635
   48      H      -6.6800421164    -0.8229500536    -2.3176947061
   49      H      -5.4824599259    -0.6745994835    -3.6671845612
   50      H       7.2564386183    -1.2354428154    -1.7590159584
   51      H       5.8806814849    -1.3233721613    -2.9317103291
   52      H       6.3060287869    -2.7669772910    -1.9392327684
   53      H      -0.2740960789    -0.1139747907    -1.8424767614
   54      H      -0.6561770606     1.1434367130    -3.0631236365
   55      H      -0.1526960388     1.6080251196    -0.0484929269
   56      H       0.2542690975     2.8850348802    -1.2450261998
 ----------------------------------------------------------------

    9   -1510.2630945922      5.16E-09 Convergence criterion met
 Total energy in the final basis set = -1510.26309459
 Final energy is   -1510.26309459225
 **  OPTIMIZATION CONVERGED  **

                    Orbital Energies (a.u.)
 --------------------------------------------------------------

 Alpha MOs
 -- Occupied --
-18.954 -18.950 -18.928 -18.922 -18.901 -18.900 -18.898 -18.896
-18.865 -18.862 -10.118 -10.117 -10.096 -10.096 -10.096 -10.094
-10.077 -10.076 -10.067 -10.066 -10.057 -10.057 -10.054 -10.054
-10.044 -10.042 -10.036 -10.034 -10.031 -10.031  -1.026  -1.022
 -1.003  -1.002  -0.982  -0.982  -0.957  -0.951  -0.929  -0.929
 -0.775  -0.774  -0.734  -0.733  -0.728  -0.718  -0.717  -0.659
 -0.657  -0.629  -0.612  -0.605  -0.561  -0.558  -0.551  -0.547
 -0.527  -0.521  -0.498  -0.492  -0.475  -0.472  -0.465  -0.461
 -0.448  -0.444  -0.437  -0.421  -0.417  -0.414  -0.408  -0.407
 -0.405  -0.398  -0.397  -0.372  -0.371  -0.365  -0.359  -0.356
 -0.346  -0.343  -0.343  -0.338  -0.335  -0.333  -0.330  -0.326
 -0.325  -0.320  -0.318  -0.315  -0.308  -0.291  -0.286  -0.283
 -0.282  -0.263  -0.256  -0.250  -0.249  -0.246  -0.243  -0.202
 -0.179  -0.169  -0.169  -0.165  -0.164  -0.156  -0.156  -0.146
 -0.144

          Ground-State Mulliken Net Atomic Charges

     Atom                 Charge (a.u.)
  ----------------------------------------
      1 O                    -0.214870
      2 C                     0.217881
      3 C                    -0.080343
      4 C                    -0.083701
      5 C                     0.214298
      6 O                    -0.164167
      7 C                    -0.053767
      8 C                    -0.052036
      9 O                    -0.165499
     10 C                     0.212632
     11 C                    -0.084987
     12 C                    -0.079537
     13 C                     0.214178
     14 O                    -0.222956
     15 O                    -0.180175
     16 O                    -0.167452
     17 O                    -0.187125
     18 C                    -0.126739
     19 C                     0.022816
     20 C                    -0.146337
     21 C                    -0.144418
     22 C                     0.026272
     23 O                    -0.182741
     24 H                     0.072454
     25 H                     0.081081
     26 H                     0.081608
     27 H                     0.080473
     28 H                     0.068709
     29 H                     0.080521
     30 H                     0.073308
     31 H                     0.093622
     32 O                    -0.186460
     33 C                    -0.129004
     34 C                     0.024893
     35 C                    -0.143217
     36 C                    -0.145519
     37 C                     0.021585
     38 O                    -0.184727
     39 H                     0.082995
     40 H                     0.073713
     41 H                     0.092835
     42 H                     0.094723
     43 H                     0.081008
     44 H                     0.075026
     45 H                     0.080316
     46 H                     0.067927
     47 H                     0.080641
     48 H                     0.087897
     49 H                     0.086579
     50 H                     0.088880
     51 H                     0.094764
     52 H                     0.087076
     53 H                     0.081321
     54 H                     0.103322
     55 H                     0.081383
     56 H                     0.099039
  ----------------------------------------
  Sum of atomic charges =     0.000000

                    Cartesian Multipole Moments
 -----------------------------------------------------------------
    Charge (ESU x 10^10)
                -0.0000
    Dipole Moment (Debye)
         X       1.1871      Y      -2.1484      Z       2.4436
       Tot       3.4635
    Quadrupole Moments (Debye-Ang)
        XX    -184.3300     XY       8.9382     YY    -166.2092
        XZ      11.0641     YZ      -2.7574     ZZ    -161.7699

 Total job time:  140.88s(wall), 6724.22s(cpu)
        *  Thank you very much for using Q-Chem.  Have a nice day.  *
