 Q-Chem 5.0, Q-Chem, Inc., Pleasanton, CA (2017)
 Q-Chem 5.0.1 for Intel X86 EM64T Linux

User input:
--------------------------------------------------------------
$molecule
0  1
O -3.94934 -3.66094 2.70899
C -3.26408 -4.56952 2.26188
C -3.36658 -6.02376 2.66595
C -2.40867 -7.01244 1.98128
C -1.33566 -6.41165 1.10049
O -0.56628 -7.40434 0.5638
C 0.20212 -8.11254 1.5422
C -0.67906 -8.49403 2.72715
O -0.06032 -9.55145 3.47676
C 0.51656 -9.17728 4.64567
C 1.71183 -8.2753 4.44966
C 2.40112 -7.82334 5.74538
C 2.0361 -8.60089 6.99392
O 1.29122 -8.209 7.88056
O -2.84523 -4.31593 0.98777
O 2.47665 -9.88865 7.06082
O 0.06033 -9.58978 5.6989
C 2.2009 -10.75743 8.09603
C 2.90846 -8.91169 3.70914
C 3.76475 -7.81847 3.0664
C 4.3735 -7.16974 4.29395
C 3.86752 -8.12071 5.38388
O 3.76298 -9.36539 4.73083
H 1.38879 -7.36 3.92177
H 2.19081 -6.75245 5.9653
H 2.60806 -9.66645 2.95057
H 4.5728 -8.34188 2.50612
H 3.25312 -7.11711 2.37613
H 5.48126 -7.21109 4.20032
H 4.04394 -6.12663 4.49198
H 4.53135 -8.08893 6.27601
O -0.74426 -5.39454 1.43955
C -2.86489 -3.08578 0.35827
C -3.78945 -6.49015 4.06209
C -5.15389 -7.1454 3.9442
C -4.76881 -8.27026 2.98839
C -3.19902 -8.1334 3.00432
O -2.9743 -7.5964 4.27377
H -4.28344 -6.08924 2.02059
H -2.9274 -7.41412 1.07755
H -2.24143 -2.35967 0.92216
H -3.69628 -5.71059 4.84782
H -5.39897 -7.55591 4.95032
H -5.98434 -6.49818 3.58794
H -5.142 -9.21816 3.44023
H -5.14914 -8.18235 1.94766
H -2.99157 -9.21953 2.95547
H -3.90694 -2.7087 0.28037
H -2.45004 -3.1953 -0.66461
H 2.68562 -11.73361 7.88992
H 1.10452 -10.91412 8.18322
H 2.6003 -10.35333 9.05066
H -0.76582 -7.60042 3.40023
H -1.30355 -9.11828 2.0593
H 1.05913 -7.48779 1.83997
H 0.62767 -9.01435 1.04479
$end

$opt
CONSTRAINT
tors           1           2           3           4    -180.000
tors           3           4           5           6    -180.000
tors           4           5           6           7     -66.316
tors           5           6           7           8     +47.368
tors           6           7           8           9    +161.053
tors           7           8           9          10    +104.211
tors           8           9          10          11     -66.316
tors           9          10          11          12    -180.000
tors          11          12          13          14    -104.211
ENDCONSTRAINT
$end

$rem
JOBTYPE                   OPT
METHOD                    B3LYP
DFT_D                     d3_op
BASIS                     STO-3G
GEOM_OPT_MAX_CYCLES       100
GEOM_OPT_TOL_GRADIENT     300
GEOM_OPT_TOL_DISPLACEMENT 1200
GEOM_OPT_TOL_ENERGY       100
SYMMETRY                  False
THRESH                    12
SCF_CONVERGENCE           8
MAX_SUB_FILE_NUM          128
MEM_STATIC                400
MEM_TOTAL                 4000
$end
--------------------------------------------------------------

   18   -1509.8472271440      6.93E-09 Convergence criterion met
 Total energy in the final basis set = -1509.84722714
   15   -1509.9447007956      7.65E-09 Convergence criterion met
 Total energy in the final basis set = -1509.94470080
   14   -1510.0169595806      2.02E-09 Convergence criterion met
 Total energy in the final basis set = -1510.01695958
   14   -1510.0647380024      3.28E-09 Convergence criterion met
 Total energy in the final basis set = -1510.06473800
   14   -1510.1005341036      2.37E-09 Convergence criterion met
 Total energy in the final basis set = -1510.10053410
   14   -1510.1263902042      3.14E-09 Convergence criterion met
 Total energy in the final basis set = -1510.12639020
   14   -1510.1464155247      5.82E-09 Convergence criterion met
 Total energy in the final basis set = -1510.14641552
   14   -1510.1618134956      5.67E-09 Convergence criterion met
    9   -1510.2020834353      9.41E-09 Convergence criterion met
 Total energy in the final basis set = -1510.20208344
    9   -1510.2020853551      6.15E-09 Convergence criterion met
 Total energy in the final basis set = -1510.20208536
    9   -1510.2020880539      4.55E-09 Convergence criterion met
 Total energy in the final basis set = -1510.20208805
    9   -1510.2020914411      4.84E-09 Convergence criterion met
 Total energy in the final basis set = -1510.20209144
    9   -1510.2020946020      3.11E-09 Convergence criterion met
 Total energy in the final basis set = -1510.20209460
    9   -1510.2020965248      3.86E-09 Convergence criterion met
 Total energy in the final basis set = -1510.20209652

             Standard Nuclear Orientation (Angstroms)
    I     Atom           X                Y                Z
 ----------------------------------------------------------------
    1      O      -6.4934259414     0.5280634093     1.5001393236
    2      C      -5.5635040406     0.6585793795     0.6725904059
    3      C      -4.5733526637    -0.4880925808     0.2489611519
    4      C      -3.4274491946    -0.2151588715    -0.8106855771
    5      C      -2.7176847743     1.1876391846    -0.5016938770
    6      O      -1.6331109339     1.7315249149    -1.2811964506
    7      C      -0.2534407475     1.2669724540    -1.4655778726
    8      C       0.1985561041    -0.2177454948    -1.7966003327
    9      O       1.5785058045    -0.1616980719    -2.3449125791
   10      C       2.5720422562    -0.5912376634    -1.3748581849
   11      C       2.7433174851     0.3366313995    -0.1185171837
   12      C       3.8331272695    -0.1608963225     0.9168757797
   13      C       4.6495584539    -1.4254851042     0.4488279536
   14      O       4.4951552937    -2.5960100074     0.8610152550
   15      O      -5.5043229277     1.7409582231    -0.2643501979
   16      O       5.7045237125    -1.0072552678    -0.4248028996
   17      O       3.3262996146    -1.5433950296    -1.6692006962
   18      C       6.4431278065    -2.1914281873    -0.9156359481
   19      C       3.2987975573     1.7809962636    -0.4959887485
   20      C       2.9425685601     2.7507025023     0.6986285509
   21      C       3.9629460242     2.2606248006     1.7920414678
   22      C       4.7469773430     1.1349196004     1.0051786560
   23      O       4.7645724299     1.6312303771    -0.3917870690
   24      H       1.7638941141     0.4276149145     0.3828222060
   25      H       3.3651827501    -0.4093526926     1.8855739185
   26      H       3.0089646598     2.1369763277    -1.5041872715
   27      H       3.1295336200     3.7973077850     0.4100327330
   28      H       1.8927350672     2.6544491904     1.0194232007
   29      H       4.6480001466     3.0677700160     2.0962365363
   30      H       3.4637415859     1.8643991348     2.6908285136
   31      H       5.7784500666     0.9443141433     1.3581213210
   32      O      -3.1346170807     1.9373646527     0.4104177989
   33      C      -6.5667141962     2.7268245843     0.0364167577
   34      C      -3.8135045066    -1.3009114190     1.3869495779
   35      C      -3.9573085294    -2.8165828755     0.9843240804
   36      C      -3.1514015027    -2.8037302509    -0.3686713037
   37      C      -2.4602231846    -1.3783842849    -0.3187199462
   38      O      -2.3740038197    -1.0560064325     1.1292835218
   39      H      -5.2610286423    -1.2050493667    -0.2410759162
   40      H      -3.7639830100    -0.2943242959    -1.8598814094
   41      H      -6.3983824841     3.2182086952     1.0162772498
   42      H      -4.0872390140    -1.0357992018     2.4263432302
   43      H      -3.4732702569    -3.4634326258     1.7338830711
   44      H      -5.0059406010    -3.1307832197     0.8615448499
   45      H      -2.3882062893    -3.5970678011    -0.4010615620
   46      H      -3.8042349677    -2.9114696142    -1.2500591116
   47      H      -1.4634940280    -1.3743984236    -0.7712913192
   48      H      -7.5714361523     2.2565615277     0.0458891890
   49      H      -6.5148064352     3.4833302020    -0.7680367910
   50      H       7.2600195428    -1.8002245511    -1.5494809452
   51      H       5.7860617546    -2.8494800704    -1.5205224133
   52      H       6.8695071485    -2.7856086216    -0.0814740027
   53      H       0.1667384245    -0.8535391127    -0.8917706544
   54      H      -0.4424743168    -0.6631434013    -2.5867273710
   55      H       0.3271117993     1.5806013394    -0.5680404178
   56      H       0.1059438779     1.8874875971    -2.3154801615
 ----------------------------------------------------------------

    9   -1510.2020974293      3.61E-09 Convergence criterion met
 Total energy in the final basis set = -1510.20209743
 Final energy is   -1510.20209742934
 **  OPTIMIZATION CONVERGED  **

                    Orbital Energies (a.u.)
 --------------------------------------------------------------

 Alpha MOs
 -- Occupied --
-18.932 -18.925 -18.922 -18.915 -18.910 -18.894 -18.894 -18.890
-18.869 -18.860 -10.119 -10.109 -10.099 -10.091 -10.089 -10.084
-10.068 -10.067 -10.066 -10.062 -10.061 -10.053 -10.048 -10.046
-10.040 -10.037 -10.028 -10.025 -10.025 -10.023  -1.020  -1.011
 -1.001  -0.999  -0.979  -0.975  -0.953  -0.935  -0.929  -0.924
 -0.769  -0.768  -0.728  -0.726  -0.719  -0.710  -0.710  -0.660
 -0.652  -0.624  -0.604  -0.598  -0.554  -0.551  -0.546  -0.542
 -0.520  -0.511  -0.491  -0.487  -0.468  -0.464  -0.463  -0.455
 -0.438  -0.438  -0.429  -0.412  -0.410  -0.406  -0.406  -0.403
 -0.401  -0.387  -0.385  -0.371  -0.367  -0.364  -0.355  -0.348
 -0.345  -0.341  -0.337  -0.337  -0.333  -0.332  -0.323  -0.320
 -0.314  -0.313  -0.311  -0.304  -0.299  -0.291  -0.286  -0.281
 -0.278  -0.255  -0.250  -0.244  -0.242  -0.238  -0.221  -0.185
 -0.176  -0.171  -0.165  -0.161  -0.153  -0.150  -0.148  -0.144
 -0.141

          Ground-State Mulliken Net Atomic Charges

     Atom                 Charge (a.u.)
  ----------------------------------------
      1 O                    -0.218486
      2 C                     0.213317
      3 C                    -0.078319
      4 C                    -0.076311
      5 C                     0.221725
      6 O                    -0.200412
      7 C                    -0.043165
      8 C                    -0.052279
      9 O                    -0.185606
     10 C                     0.220217
     11 C                    -0.085099
     12 C                    -0.081304
     13 C                     0.212462
     14 O                    -0.221188
     15 O                    -0.165928
     16 O                    -0.167917
     17 O                    -0.171782
     18 C                    -0.127219
     19 C                     0.024046
     20 C                    -0.143308
     21 C                    -0.144766
     22 C                     0.027326
     23 O                    -0.182955
     24 H                     0.079560
     25 H                     0.084309
     26 H                     0.086091
     27 H                     0.080448
     28 H                     0.073480
     29 H                     0.079328
     30 H                     0.074880
     31 H                     0.087654
     32 O                    -0.179445
     33 C                    -0.127218
     34 C                     0.024817
     35 C                    -0.139966
     36 C                    -0.146340
     37 C                     0.014633
     38 O                    -0.195110
     39 H                     0.083305
     40 H                     0.087046
     41 H                     0.090486
     42 H                     0.090607
     43 H                     0.079099
     44 H                     0.076599
     45 H                     0.079001
     46 H                     0.074082
     47 H                     0.078335
     48 H                     0.088313
     49 H                     0.090226
     50 H                     0.088444
     51 H                     0.092289
     52 H                     0.085960
     53 H                     0.084265
     54 H                     0.090849
     55 H                     0.075666
     56 H                     0.095259
  ----------------------------------------
  Sum of atomic charges =     0.000000

                    Cartesian Multipole Moments
 -----------------------------------------------------------------
    Charge (ESU x 10^10)
                 0.0000
    Dipole Moment (Debye)
         X      -1.3377      Y      -0.2070      Z      -0.6298
       Tot       1.4930
    Quadrupole Moments (Debye-Ang)
        XX    -163.2269     XY       8.2343     YY    -161.8056
        XZ      14.2296     YZ       3.0788     ZZ    -163.0163

 Total job time:  83.23s(wall), 3959.54s(cpu)
        *  Thank you very much for using Q-Chem.  Have a nice day.  *
