 Q-Chem 5.0, Q-Chem, Inc., Pleasanton, CA (2017)
 Q-Chem 5.0.1 for Intel X86 EM64T Linux

User input:
--------------------------------------------------------------
$molecule
0  1
O -5.9012700689 -1.3079042127 0.9114742731
C -4.7250263003 -0.9786853886 0.6471165024
C -4.1013090292 0.4525668069 0.8001850146
C -2.8179356591 0.7630507476 -0.0619007028
C -2.7229890977 -0.14660679 -1.355156494
O -1.458846446 -0.202280901 -2.053958745
C -0.2893848126 -0.4278657883 -1.1787061271
C 0.9525345225 0.1056997559 -1.9883319049
O 2.2036311915 0.4489973905 -1.2540020908
C 2.1649365827 0.5465001619 0.1615342119
C 3.628398449 0.8491366067 0.6543314479
C 4.448015231 -0.4914109413 0.9322066448
C 3.6132066381 -1.7717222772 0.5846220071
O 3.4745013748 -2.3215713273 -0.529082621
O -3.6704410116 -1.9206867859 0.4026206637
O 2.9489250999 -2.2038102576 1.7793171619
O 1.1663297955 0.4655342506 0.9170962038
C 2.0502436328 -3.341541129 1.4758789008
C 4.550515621 1.5377637997 -0.4356134889
C 5.8319283467 2.1053088064 0.2960047181
C 6.64263538 0.7829669544 0.5634799555
C 5.6731631676 -0.2983209045 -0.0574418683
O 5.0743378244 0.3964350253 -1.2193071609
H 3.5484192928 1.4522725233 1.5760663375
H 4.7629380343 -0.5496114683 1.9888623764
H 4.0260683018 2.2539567418 -1.0964343195
H 6.3823502883 2.7888065708 -0.3697707662
H 5.5761417393 2.6434297416 1.2227558024
H 7.6072915227 0.78570126 0.0317037756
H 6.8301806739 0.6071502555 1.634848104
H 6.1533667229 -1.2423647424 -0.3798154798
O -3.727776191 -0.5936378314 -1.9499431053
C -4.2236817766 -3.2897023625 0.3089096661
C -5.0598096011 1.6553117041 0.4013976638
C -4.628807649 2.8985800193 1.2714610507
C -3.228521247 3.2295742989 0.6318021678
C -3.1945862049 2.2202400648 -0.5860022334
O -4.6183928751 2.0478346315 -0.9578694508
H -3.8405775153 0.539876995 1.8726058707
H -1.9019982532 0.7497212419 0.5472762068
H -4.8894036183 -3.396343406 -0.5718254568
H -6.138486761 1.4046932571 0.4104462991
H -5.3391166387 3.7288086554 1.1292443092
H -4.5658051366 2.6642517782 2.3459916465
H -3.1777659023 4.2704286707 0.2750344706
H -2.392901933 3.0541939021 1.3285936281
H -2.6024635479 2.5560699308 -1.459677044
H -4.7951045193 -3.5633426672 1.2194083884
H -3.3547725218 -3.9639738902 0.1968616187
H 1.5725869778 -3.6177047362 2.433772593
H 2.6095610375 -4.2111876374 1.0742977266
H 1.2691569194 -3.0558859191 0.7415539916
H 1.2610404613 -0.6339994577 -2.7569983391
H 0.6304303655 1.0297066264 -2.5193404063
H -0.1742920158 -1.5155756241 -0.9761082493
H -0.304237087 0.0987041727 -0.2038302287
$end

$rem
JOBTYPE                   OPT
METHOD                    B3LYP
DFT_D                     d3_op
BASIS                     STO-3G
GEOM_OPT_MAX_CYCLES       100
GEOM_OPT_TOL_GRADIENT     300
GEOM_OPT_TOL_DISPLACEMENT 1200
GEOM_OPT_TOL_ENERGY       100
SYMMETRY                  False
THRESH                    12
SCF_CONVERGENCE           8
MAX_SUB_FILE_NUM          128
MEM_STATIC                400
MEM_TOTAL                 4000
$end
--------------------------------------------------------------

   16   -1510.2529806441      5.24E-09 Convergence criterion met
 Total energy in the final basis set = -1510.25298064
   15   -1510.2564570411      5.07E-09 Convergence criterion met
 Total energy in the final basis set = -1510.25645704
   14   -1510.2592265732      6.80E-09 Convergence criterion met
 Total energy in the final basis set = -1510.25922657
   15   -1510.2617960733      5.56E-09 Convergence criterion met
 Total energy in the final basis set = -1510.26179607
   14   -1510.2641307725      6.40E-09 Convergence criterion met
 Total energy in the final basis set = -1510.26413077
   14   -1510.2654357849      5.10E-09 Convergence criterion met
 Total energy in the final basis set = -1510.26543578
   14   -1510.2673544826      6.50E-09 Convergence criterion met
 Total energy in the final basis set = -1510.26735448
   14   -1510.2698770948      2.69E-09 Convergence criterion met
   12   -1510.2795984929      8.12E-09 Convergence criterion met
 Total energy in the final basis set = -1510.27959849
   12   -1510.2797542456      4.26E-09 Convergence criterion met
 Total energy in the final basis set = -1510.27975425
   11   -1510.2797958802      4.61E-09 Convergence criterion met
 Total energy in the final basis set = -1510.27979588
   10   -1510.2798037078      8.56E-09 Convergence criterion met
 Total energy in the final basis set = -1510.27980371
   10   -1510.2798141025      7.05E-09 Convergence criterion met
 Total energy in the final basis set = -1510.27981410
   10   -1510.2798335082      7.63E-09 Convergence criterion met
 Total energy in the final basis set = -1510.27983351

             Standard Nuclear Orientation (Angstroms)
    I     Atom           X                Y                Z
 ----------------------------------------------------------------
    1      O       5.7733246018    -0.0030249595     1.0220097268
    2      C       4.9591151446    -0.7757078782     0.4747754923
    3      C       3.8434404629    -0.3999678832    -0.5725818727
    4      C       2.3487620755    -0.5889677801    -0.0759492193
    5      C       2.2996665591    -1.0246194865     1.4385837183
    6      O       1.1197212084    -1.6396176342     1.9806631876
    7      C      -0.1355006310    -1.4572351778     1.2223740185
    8      C      -1.0706689327    -0.4697769854     2.0199053571
    9      O      -2.2159253617    -0.0369964343     1.1821904970
   10      C      -1.9235768541     1.2073240646     0.5398894861
   11      C      -3.1870021224     1.6930054711    -0.2367167551
   12      C      -3.8513581160     0.6114145887    -1.1863922799
   13      C      -3.1126283899    -0.7700003562    -1.2794082436
   14      O      -3.5962794078    -1.8981832644    -1.0505037220
   15      O       5.0115427727    -2.2107343520     0.5559375128
   16      O      -1.7794900055    -0.5531260131    -1.7716713700
   17      O      -0.8407662360     1.8270986475     0.6614943330
   18      C      -1.1573458511    -1.8544590404    -2.1122883136
   19      C      -4.3944963707     1.9727559084     0.7669785593
   20      C      -5.4893468564     2.8168938712     0.0020469855
   21      C      -6.1498620835     1.7112007725    -0.9036755553
   22      C      -5.2818634350     0.4505924526    -0.5203252357
   23      O      -5.0155366348     0.6408665238     0.9245983835
   24      H      -2.9021806807     2.6016836956    -0.7953076611
   25      H      -3.9306239470     1.0121286445    -2.2141902744
   26      H      -4.0872020116     2.3789358434     1.7502648771
   27      H      -6.2132329742     3.2433751398     0.7145323762
   28      H      -5.0436337178     3.6368095599    -0.5834022699
   29      H      -7.2054772103     1.5472397506    -0.6346902997
   30      H      -6.0908113892     1.9475558733    -1.9781616755
   31      H      -5.7472610648    -0.5378111488    -0.7011433991
   32      O       3.2777219991    -0.9314006174     2.2162337379
   33      C       6.0128006803    -2.6165861061     1.5654198139
   34      C       3.8657906926     1.1480777227    -0.9084105160
   35      C       3.1262315940     1.3646667364    -2.2841896362
   36      C       1.6309771498     1.1274203782    -1.8555542167
   37      C       1.7820571665     0.8862024717    -0.3001606457
   38      O       2.9304306394     1.7349181023     0.0793292147
   39      H       4.0153625621    -1.0104514967    -1.4774697109
   40      H       1.8256688794    -1.3352275450    -0.6986249995
   41      H       5.7278658503    -2.2630638792     2.5776864267
   42      H       4.8670322384     1.6110820375    -0.8133625285
   43      H       3.2831885738     2.3921664581    -2.6490028820
   44      H       3.4668829233     0.6579652651    -3.0579410723
   45      H       1.0069036173     2.0160574653    -2.0404542462
   46      H       1.1725849076     0.2671334429    -2.3686295633
   47      H       0.8742773955     1.1626007457     0.2834612934
   48      H       7.0221201253    -2.2238523794     1.3251040512
   49      H       6.0331522121    -3.7220162666     1.5525145416
   50      H      -0.0881798821    -1.6486982387    -2.3030698639
   51      H      -1.6134677977    -2.2866457462    -3.0266886234
   52      H      -1.2598231629    -2.5909874527    -1.2910861558
   53      H      -1.5001021558    -0.9734262110     2.9083685740
   54      H      -0.4764860632     0.4141853156     2.3357206032
   55      H      -0.6204608008    -2.4526626696     1.1409740261
   56      H       0.0147439389    -1.0575822562     0.2034685385
 ----------------------------------------------------------------

    9   -1510.2798331797      3.99E-09 Convergence criterion met
 Total energy in the final basis set = -1510.27983318
 Final energy is   -1510.27983317975
 **  OPTIMIZATION CONVERGED  **

                    Orbital Energies (a.u.)
 --------------------------------------------------------------

 Alpha MOs
 -- Occupied --
-18.953 -18.944 -18.940 -18.912 -18.897 -18.896 -18.888 -18.885
-18.881 -18.854 -10.118 -10.111 -10.106 -10.085 -10.084 -10.081
-10.077 -10.070 -10.066 -10.051 -10.051 -10.049 -10.048 -10.047
-10.038 -10.029 -10.028 -10.027 -10.016 -10.015  -1.031  -1.021
 -1.013  -0.991  -0.979  -0.964  -0.955  -0.948  -0.942  -0.918
 -0.774  -0.758  -0.736  -0.720  -0.717  -0.709  -0.699  -0.676
 -0.649  -0.622  -0.601  -0.596  -0.555  -0.546  -0.541  -0.534
 -0.525  -0.511  -0.497  -0.480  -0.476  -0.459  -0.455  -0.452
 -0.441  -0.439  -0.427  -0.426  -0.417  -0.410  -0.406  -0.400
 -0.398  -0.393  -0.384  -0.377  -0.369  -0.362  -0.358  -0.357
 -0.346  -0.341  -0.339  -0.333  -0.327  -0.323  -0.319  -0.318
 -0.314  -0.311  -0.304  -0.300  -0.299  -0.298  -0.284  -0.275
 -0.270  -0.265  -0.262  -0.246  -0.243  -0.238  -0.227  -0.199
 -0.190  -0.174  -0.172  -0.164  -0.158  -0.153  -0.153  -0.139
 -0.135

          Ground-State Mulliken Net Atomic Charges

     Atom                 Charge (a.u.)
  ----------------------------------------
      1 O                    -0.217198
      2 C                     0.217060
      3 C                    -0.080197
      4 C                    -0.085276
      5 C                     0.215928
      6 O                    -0.169760
      7 C                    -0.051068
      8 C                    -0.052067
      9 O                    -0.164633
     10 C                     0.215959
     11 C                    -0.078033
     12 C                    -0.078378
     13 C                     0.213663
     14 O                    -0.207800
     15 O                    -0.180001
     16 O                    -0.176659
     17 O                    -0.212301
     18 C                    -0.131295
     19 C                     0.026873
     20 C                    -0.143792
     21 C                    -0.143786
     22 C                     0.025013
     23 O                    -0.184625
     24 H                     0.088766
     25 H                     0.086101
     26 H                     0.084435
     27 H                     0.080193
     28 H                     0.075100
     29 H                     0.079972
     30 H                     0.073994
     31 H                     0.092158
     32 O                    -0.190730
     33 C                    -0.128721
     34 C                     0.024595
     35 C                    -0.144354
     36 C                    -0.144478
     37 C                     0.008639
     38 O                    -0.188182
     39 H                     0.080582
     40 H                     0.074956
     41 H                     0.092442
     42 H                     0.089789
     43 H                     0.077220
     44 H                     0.070714
     45 H                     0.078901
     46 H                     0.065636
     47 H                     0.100514
     48 H                     0.085580
     49 H                     0.084816
     50 H                     0.085544
     51 H                     0.088718
     52 H                     0.093222
     53 H                     0.096976
     54 H                     0.099608
     55 H                     0.089520
     56 H                     0.090150
  ----------------------------------------
  Sum of atomic charges =     0.000000

                    Cartesian Multipole Moments
 -----------------------------------------------------------------
    Charge (ESU x 10^10)
                 0.0000
    Dipole Moment (Debye)
         X      -3.6307      Y      -0.2697      Z      -3.9657
       Tot       5.3835
    Quadrupole Moments (Debye-Ang)
        XX    -167.8985     XY     -16.6771     YY    -159.2543
        XZ      -4.7402     YZ      -0.6071     ZZ    -158.4595

 Total job time:  131.76s(wall), 6285.99s(cpu)
        *  Thank you very much for using Q-Chem.  Have a nice day.  *
