 Q-Chem 5.0, Q-Chem, Inc., Pleasanton, CA (2017)
 Q-Chem 5.0.1 for Intel X86 EM64T Linux

User input:
--------------------------------------------------------------
$molecule
0  1
O -3.94934 -3.66094 2.70899
C -3.26408 -4.56952 2.26188
C -3.36658 -6.02376 2.66595
C -2.13664 -6.91131 2.41424
C -0.88046 -6.20743 1.95096
O 0.00875 -7.12043 1.45989
C -0.58343 -8.04615 0.54249
C 0.26065 -9.31352 0.45632
O -0.5304 -10.39401 -0.06296
C -1.86671 -10.16784 -0.11069
C -2.63586 -11.31376 -0.72384
C -2.81029 -11.2345 -2.24751
C -1.91166 -10.24741 -2.96502
O -0.76541 -10.46717 -3.32886
O -2.5668 -4.30552 1.12318
O -2.4005 -8.98464 -3.07499
O -2.58261 -9.64701 0.73322
C -1.70622 -7.92787 -3.62534
C -1.95127 -12.69541 -0.58732
C -2.99285 -13.80907 -0.69492
C -3.35177 -13.71664 -2.16284
C -2.34301 -12.65793 -2.62373
O -1.23196 -12.85214 -1.78294
H -3.63413 -11.40651 -0.2275
H -3.85561 -11.04934 -2.58048
H -1.3718 -12.80985 0.3549
H -2.45662 -14.76957 -0.51993
H -3.85024 -13.73885 0.00847
H -3.14101 -14.70063 -2.63752
H -4.39622 -13.4035 -2.37882
H -2.15036 -12.75946 -3.71503
O -0.4556 -5.2125 2.52023
C -2.45422 -3.06048 0.53946
C -3.45885 -6.1698 4.20647
C -4.12663 -7.49707 4.56439
C -3.02796 -8.4715 4.19938
C -1.90996 -7.49589 3.81724
O -2.13572 -6.37806 4.63752
H -4.33257 -6.3939 2.24612
H -2.62233 -7.56176 1.67914
H -1.97275 -2.35041 1.24529
H -4.00315 -5.33508 4.70003
H -4.25461 -7.50866 5.6708
H -5.10988 -7.68524 4.08215
H -2.75183 -9.04804 5.11007
H -3.26724 -9.16796 3.36752
H -0.9162 -7.98577 3.91501
H -3.45687 -2.68089 0.24826
H -1.82531 -3.1418 -0.37066
H -2.33952 -7.01794 -3.58826
H -1.45393 -8.14628 -4.68506
H -0.77564 -7.73951 -3.0482
H 1.07788 -9.10434 -0.26527
H 0.75269 -9.63275 1.41124
H -1.09337 -7.62506 -0.35424
H -1.01131 -8.56574 1.36194
$end

$opt
CONSTRAINT
tors           1           2           3           4    -158.027
tors           3           4           5           6    -165.246
tors           4           5           6           7     +47.712
tors           5           6           7           8    -158.059
tors           6           7           8           9    +159.859
tors           7           8           9          10     -12.577
tors           8           9          10          11    +177.350
tors           9          10          11          12     -89.398
tors          11          12          13          14     +84.264
ENDCONSTRAINT
$end

$rem
JOBTYPE                   OPT
METHOD                    B3LYP
DFT_D                     d3_op
BASIS                     STO-3G
GEOM_OPT_MAX_CYCLES       100
GEOM_OPT_TOL_GRADIENT     300
GEOM_OPT_TOL_DISPLACEMENT 1200
GEOM_OPT_TOL_ENERGY       100
SYMMETRY                  False
THRESH                    12
SCF_CONVERGENCE           8
MAX_SUB_FILE_NUM          128
MEM_STATIC                400
MEM_TOTAL                 4000
$end
--------------------------------------------------------------

   16   -1510.0024950572      3.88E-09 Convergence criterion met
 Total energy in the final basis set = -1510.00249506
   14   -1510.0921148154      5.29E-09 Convergence criterion met
 Total energy in the final basis set = -1510.09211482
   14   -1510.1472818698      2.98E-09 Convergence criterion met
 Total energy in the final basis set = -1510.14728187
   14   -1510.1867349324      3.02E-09 Convergence criterion met
 Total energy in the final basis set = -1510.18673493
   13   -1510.2114432046      7.09E-09 Convergence criterion met
 Total energy in the final basis set = -1510.21144320
   13   -1510.2273506577      5.51E-09 Convergence criterion met
 Total energy in the final basis set = -1510.22735066
   13   -1510.2379136307      4.12E-09 Convergence criterion met
 Total energy in the final basis set = -1510.23791363
   13   -1510.2447297308      3.18E-09 Convergence criterion met
   12   -1510.2531238454      1.95E-09 Convergence criterion met
 Total energy in the final basis set = -1510.25312385
   10   -1510.2531479595      8.93E-09 Convergence criterion met
 Total energy in the final basis set = -1510.25314796
   10   -1510.2531722225      9.85E-09 Convergence criterion met
 Total energy in the final basis set = -1510.25317222
   11   -1510.2531797292      3.56E-09 Convergence criterion met
 Total energy in the final basis set = -1510.25317973
   10   -1510.2531857818      6.76E-09 Convergence criterion met
 Total energy in the final basis set = -1510.25318578
    9   -1510.2531874343      7.01E-09 Convergence criterion met
 Total energy in the final basis set = -1510.25318743

             Standard Nuclear Orientation (Angstroms)
    I     Atom           X                Y                Z
 ----------------------------------------------------------------
    1      O      -5.9012700689    -1.3079042127     0.9114742731
    2      C      -4.7250263003    -0.9786853886     0.6471165024
    3      C      -4.1013090292     0.4525668069     0.8001850146
    4      C      -2.8179356591     0.7630507476    -0.0619007028
    5      C      -2.7229890977    -0.1466067900    -1.3551564940
    6      O      -1.4588464460    -0.2022809010    -2.0539587450
    7      C      -0.2893848126    -0.4278657883    -1.1787061271
    8      C       0.9525345225     0.1056997559    -1.9883319049
    9      O       2.2036311915     0.4489973905    -1.2540020908
   10      C       2.1649365827     0.5465001619     0.1615342119
   11      C       3.6283984490     0.8491366067     0.6543314479
   12      C       4.4480152310    -0.4914109413     0.9322066448
   13      C       3.6132066381    -1.7717222772     0.5846220071
   14      O       3.4745013748    -2.3215713273    -0.5290826210
   15      O      -3.6704410116    -1.9206867859     0.4026206637
   16      O       2.9489250999    -2.2038102576     1.7793171619
   17      O       1.1663297955     0.4655342506     0.9170962038
   18      C       2.0502436328    -3.3415411290     1.4758789008
   19      C       4.5505156210     1.5377637997    -0.4356134889
   20      C       5.8319283467     2.1053088064     0.2960047181
   21      C       6.6426353800     0.7829669544     0.5634799555
   22      C       5.6731631676    -0.2983209045    -0.0574418683
   23      O       5.0743378244     0.3964350253    -1.2193071609
   24      H       3.5484192928     1.4522725233     1.5760663375
   25      H       4.7629380343    -0.5496114683     1.9888623764
   26      H       4.0260683018     2.2539567418    -1.0964343195
   27      H       6.3823502883     2.7888065708    -0.3697707662
   28      H       5.5761417393     2.6434297416     1.2227558024
   29      H       7.6072915227     0.7857012600     0.0317037756
   30      H       6.8301806739     0.6071502555     1.6348481040
   31      H       6.1533667229    -1.2423647424    -0.3798154798
   32      O      -3.7277761910    -0.5936378314    -1.9499431053
   33      C      -4.2236817766    -3.2897023625     0.3089096661
   34      C      -5.0598096011     1.6553117041     0.4013976638
   35      C      -4.6288076490     2.8985800193     1.2714610507
   36      C      -3.2285212470     3.2295742989     0.6318021678
   37      C      -3.1945862049     2.2202400648    -0.5860022334
   38      O      -4.6183928751     2.0478346315    -0.9578694508
   39      H      -3.8405775153     0.5398769950     1.8726058707
   40      H      -1.9019982532     0.7497212419     0.5472762068
   41      H      -4.8894036183    -3.3963434060    -0.5718254568
   42      H      -6.1384867610     1.4046932571     0.4104462991
   43      H      -5.3391166387     3.7288086554     1.1292443092
   44      H      -4.5658051366     2.6642517782     2.3459916465
   45      H      -3.1777659023     4.2704286707     0.2750344706
   46      H      -2.3929019330     3.0541939021     1.3285936281
   47      H      -2.6024635479     2.5560699308    -1.4596770440
   48      H      -4.7951045193    -3.5633426672     1.2194083884
   49      H      -3.3547725218    -3.9639738902     0.1968616187
   50      H       1.5725869778    -3.6177047362     2.4337725930
   51      H       2.6095610375    -4.2111876374     1.0742977266
   52      H       1.2691569194    -3.0558859191     0.7415539916
   53      H       1.2610404613    -0.6339994577    -2.7569983391
   54      H       0.6304303655     1.0297066264    -2.5193404063
   55      H      -0.1742920158    -1.5155756241    -0.9761082493
   56      H      -0.3042370870     0.0987041727    -0.2038302287
 ----------------------------------------------------------------

    9   -1510.2531878522      2.27E-09 Convergence criterion met
 Total energy in the final basis set = -1510.25318785
 Final energy is   -1510.25318785223
 **  OPTIMIZATION CONVERGED  **

                    Orbital Energies (a.u.)
 --------------------------------------------------------------

 Alpha MOs
 -- Occupied --
-18.949 -18.938 -18.929 -18.918 -18.891 -18.887 -18.886 -18.880
-18.876 -18.870 -10.115 -10.102 -10.097 -10.097 -10.077 -10.068
-10.064 -10.064 -10.063 -10.061 -10.061 -10.057 -10.044 -10.042
-10.036 -10.035 -10.024 -10.023 -10.021 -10.019  -1.022  -1.014
 -1.008  -0.998  -0.973  -0.969  -0.951  -0.940  -0.934  -0.929
 -0.768  -0.762  -0.730  -0.721  -0.717  -0.704  -0.699  -0.667
 -0.659  -0.615  -0.599  -0.593  -0.553  -0.545  -0.541  -0.538
 -0.518  -0.509  -0.485  -0.473  -0.465  -0.460  -0.455  -0.451
 -0.442  -0.435  -0.432  -0.417  -0.412  -0.410  -0.407  -0.403
 -0.392  -0.385  -0.381  -0.370  -0.365  -0.361  -0.357  -0.351
 -0.347  -0.343  -0.335  -0.333  -0.331  -0.328  -0.315  -0.314
 -0.310  -0.308  -0.306  -0.305  -0.299  -0.288  -0.285  -0.284
 -0.270  -0.261  -0.254  -0.252  -0.238  -0.237  -0.232  -0.186
 -0.181  -0.175  -0.167  -0.160  -0.153  -0.151  -0.147  -0.146
 -0.140

          Ground-State Mulliken Net Atomic Charges

     Atom                 Charge (a.u.)
  ----------------------------------------
      1 O                    -0.214144
      2 C                     0.215207
      3 C                    -0.078756
      4 C                    -0.082288
      5 C                     0.217999
      6 O                    -0.182083
      7 C                    -0.063580
      8 C                    -0.048713
      9 O                    -0.161853
     10 C                     0.210873
     11 C                    -0.077183
     12 C                    -0.078517
     13 C                     0.203142
     14 O                    -0.209216
     15 O                    -0.173667
     16 O                    -0.169083
     17 O                    -0.218808
     18 C                    -0.128274
     19 C                     0.026716
     20 C                    -0.144124
     21 C                    -0.144003
     22 C                     0.025881
     23 O                    -0.183237
     24 H                     0.085455
     25 H                     0.086884
     26 H                     0.086642
     27 H                     0.078592
     28 H                     0.073150
     29 H                     0.078771
     30 H                     0.073576
     31 H                     0.086280
     32 O                    -0.192249
     33 C                    -0.127808
     34 C                     0.025376
     35 C                    -0.142110
     36 C                    -0.145290
     37 C                     0.023606
     38 O                    -0.186891
     39 H                     0.083292
     40 H                     0.083446
     41 H                     0.092734
     42 H                     0.091138
     43 H                     0.078458
     44 H                     0.073504
     45 H                     0.078048
     46 H                     0.073471
     47 H                     0.082126
     48 H                     0.088904
     49 H                     0.088156
     50 H                     0.091807
     51 H                     0.089659
     52 H                     0.086496
     53 H                     0.097385
     54 H                     0.089671
     55 H                     0.077380
     56 H                     0.108049
  ----------------------------------------
  Sum of atomic charges =     0.000000

                    Cartesian Multipole Moments
 -----------------------------------------------------------------
    Charge (ESU x 10^10)
                 0.0000
    Dipole Moment (Debye)
         X       3.6017      Y       0.9843      Z       3.6716
       Tot       5.2366
    Quadrupole Moments (Debye-Ang)
        XX    -172.2859     XY       2.1836     YY    -147.3181
        XZ      -1.0741     YZ      -1.6997     ZZ    -167.1324

 Total job time:  64.33s(wall), 3061.18s(cpu)
        *  Thank you very much for using Q-Chem.  Have a nice day.  *
