 Q-Chem 5.0, Q-Chem, Inc., Pleasanton, CA (2017)
 Q-Chem 5.0.1 for Intel X86 EM64T Linux

User input:
--------------------------------------------------------------
$molecule
0  1
O -4.6178390754 2.3320925887 0.6923829286
C -4.2143014567 1.7404980213 -0.3296652732
C -4.3213106301 0.2054661063 -0.6505835079
C -2.9114962297 -0.5319642753 -0.6715159805
C -1.6829706251 0.4156511725 -0.4294119595
O -0.6187649488 0.1246416935 -1.3784932113
C 0.6289205208 -0.3940249028 -0.7743050221
C 0.9451099143 -3.8355021155 -2.5683875543
O 2.1382476696 -3.4374048341 -1.9886292713
C 3.564884053 -1.0206221047 -0.2394298713
C 3.7061396672 0.5682513778 -0.511639036
C 2.4743741626 1.3091172452 0.1438325372
C 1.2062731126 0.4726911524 0.4718123845
O 0.5465608597 0.6131761583 1.5229644076
O -3.5959516134 2.3839480537 -1.4487947429
O 2.7414191198 -1.2850449238 0.8365013126
O 4.1559036004 -1.8851840673 -0.9969036588
C 2.4965206709 -2.7431136457 0.9959199081
C 4.8654518435 1.0444384809 0.4987312706
C 5.1557844345 2.5640613569 0.1992819845
C 3.9432488718 3.262260165 0.9159373759
C 3.1261070976 2.0060183998 1.4036875506
O 4.1964309489 1.0622999009 1.8181773842
H 3.9384701423 0.7731050764 -1.5245139728
H 2.1487044944 2.0977987019 -0.5821266512
H 5.7625312745 0.3964536024 0.5309262623
H 6.1182240565 2.8636525947 0.6408425941
H 5.1891102163 2.7760079025 -0.8842960851
H 4.2748244042 3.8636976727 1.7744337627
H 3.3570118455 3.9024952548 0.2386946642
H 2.4073359634 2.1628427929 2.2248768843
O -1.6463005433 1.3576917468 0.3907645609
C -3.380860648 3.8170708932 -1.1627590026
C -5.0373558873 -0.5690002109 0.5300238006
C -5.4290077406 -2.012753342 0.0315696451
C -4.0292024363 -2.7292126726 0.0371221996
C -3.0922346078 -1.5566684088 0.525888136
O -3.9370941014 -0.8188812184 1.4880186796
H -4.850701234 0.0789332449 -1.6115456158
H -2.7493015854 -1.0567943161 -1.6324990468
H -2.6838637216 3.9547118053 -0.3088113761
H -5.8508587363 0.0049040115 1.0170831567
H -6.1274340277 -2.4887385767 0.7392544506
H -5.8961170091 -1.9950591903 -0.9655118871
H -4.0078903939 -3.5622854347 0.7570012263
H -3.7348369034 -3.1105953461 -0.9543723746
H -2.1445264838 -1.8755051368 0.9999509565
H -4.3320138707 4.3370706335 -0.9278728142
H -2.9356754772 4.2546626234 -2.0760131486
H 2.1503161986 -3.1647446014 0.0256320831
H 1.7186928421 -2.852166741 1.7630743244
H 3.4084440279 -3.267372465 1.327259675
H 0.4314320974 -4.7114771834 -2.0297885401
H 0.9406341395 -3.9798649572 -3.6650553573
H 0.4342112538 -1.4238866499 -0.3885547316
H 1.3488306162 -0.4183752127 -1.5934477991
$end

$rem
JOBTYPE                   OPT
METHOD                    B3LYP
DFT_D                     d3_op
BASIS                     STO-3G
GEOM_OPT_MAX_CYCLES       100
GEOM_OPT_TOL_GRADIENT     300
GEOM_OPT_TOL_DISPLACEMENT 1200
GEOM_OPT_TOL_ENERGY       100
SYMMETRY                  False
THRESH                    12
SCF_CONVERGENCE           8
MAX_SUB_FILE_NUM          128
MEM_STATIC                400
MEM_TOTAL                 4000
$end
--------------------------------------------------------------

   16   -1510.1302640872      8.57E-09 Convergence criterion met
 Total energy in the final basis set = -1510.13026409
   14   -1510.1631443874      7.12E-09 Convergence criterion met
 Total energy in the final basis set = -1510.16314439
   14   -1510.1796619868      9.29E-09 Convergence criterion met
 Total energy in the final basis set = -1510.17966199
   14   -1510.1844298276      9.01E-09 Convergence criterion met
 Total energy in the final basis set = -1510.18442983
   14   -1510.1878610922      5.41E-09 Convergence criterion met
 Total energy in the final basis set = -1510.18786109
   14   -1510.1906922296      8.24E-09 Convergence criterion met
 Total energy in the final basis set = -1510.19069223
   14   -1510.1935022082      8.66E-09 Convergence criterion met
 Total energy in the final basis set = -1510.19350221
   14   -1510.1963456747      5.57E-09 Convergence criterion met
   11   -1510.2320218066      4.64E-09 Convergence criterion met
 Total energy in the final basis set = -1510.23202181
   11   -1510.2320276058      3.34E-09 Convergence criterion met
 Total energy in the final basis set = -1510.23202761
   11   -1510.2320315908      5.98E-09 Convergence criterion met
 Total energy in the final basis set = -1510.23203159
   11   -1510.2320342107      4.01E-09 Convergence criterion met
 Total energy in the final basis set = -1510.23203421
   11   -1510.2320357055      3.37E-09 Convergence criterion met
 Total energy in the final basis set = -1510.23203571
   11   -1510.2320377828      3.36E-09 Convergence criterion met
 Total energy in the final basis set = -1510.23203778

             Standard Nuclear Orientation (Angstroms)
    I     Atom           X                Y                Z
 ----------------------------------------------------------------
    1      O      -3.5321083114     1.9583616008     0.5490124492
    2      C      -2.5669451041     1.4897857727    -0.0896657700
    3      C      -2.5330084359     0.1706201796    -0.9363444813
    4      C      -1.6587500095    -0.9903869397    -0.3096461356
    5      C      -0.9787306791    -0.6030565181     1.0403353700
    6      O       0.1623260137    -1.4656204396     1.2072531208
    7      C       0.9890954270    -1.0781406214     2.3691913049
    8      C       0.3418007581    -3.8239151276     0.3991154348
    9      O       1.3638194178    -4.1398782567     1.0596981903
   10      C       1.6586747058    -0.8286429501    -0.8281150183
   11      C       1.4320362351     0.6811609096    -0.4829034866
   12      C       1.8118590324     1.0708679348     1.0107323159
   13      C       2.2020236766    -0.1250522880     1.9621208277
   14      O       3.3312770796    -0.2576845934     2.4822895459
   15      O      -1.3041167740     2.1661804459    -0.2540128896
   16      O       2.9033023361    -1.2092555747    -0.2708087644
   17      O       0.9239061163    -1.5790191369    -1.5276902519
   18      C       3.2377699563    -2.6309359940    -0.5398508876
   19      C       2.4680395574     1.5863711477    -1.2840496198
   20      C       1.9945821898     3.0898633116    -1.1716307778
   21      C       2.4524047300     3.4459608294     0.2910257302
   22      C       3.0281822673     2.0574040444     0.7707039622
   23      O       3.6849627789     1.5269506757    -0.4473690645
   24      H       0.3867684973     0.9751296316    -0.7010551831
   25      H       0.9545415932     1.5908764083     1.4770082766
   26      H       2.6836443406     1.2359253403    -2.3122627608
   27      H       2.5032963137     3.7155017859    -1.9218573259
   28      H       0.9056376090     3.1796740635    -1.3098859440
   29      H       3.2453758776     4.2109213575     0.2900940586
   30      H       1.6234164984     3.7961118598     0.9252905143
   31      H       3.7496183649     2.0933913114     1.6100322567
   32      O      -1.2928983483     0.2951670415     1.8513029473
   33      C      -1.2947633864     3.4081323481     0.5527003218
   34      C      -3.9604723782    -0.5158542773    -0.9871494809
   35      C      -3.9616525635    -1.5686763924    -2.1638274594
   36      C      -3.0938687321    -2.7239562377    -1.5392950227
   37      C      -2.7633335337    -2.1200998738    -0.1182472293
   38      O      -3.9795789832    -1.3556560539     0.2331698186
   39      H      -2.1629956967     0.4230361305    -1.9467358655
   40      H      -0.8355712507    -1.3033039079    -0.9938360908
   41      H      -0.6706081932     3.2649684494     1.4574918263
   42      H      -4.8065660813     0.1981259636    -0.9754445793
   43      H      -4.9879675635    -1.9058373010    -2.3793111229
   44      H      -3.5221662621    -1.1588617483    -3.0872105887
   45      H      -3.6737110396    -3.6551990670    -1.4367520701
   46      H      -2.1817345857    -2.9356931613    -2.1202320093
   47      H      -2.5334023914    -2.8633070801     0.6691469820
   48      H      -2.3310148144     3.6527404331     0.8614933489
   49      H      -0.8688042597     4.2215237633    -0.0644128850
   50      H       2.6530575047    -3.3052315467     0.1408857103
   51      H       4.3198092664    -2.7228863113    -0.3364540082
   52      H       3.0322584936    -2.8906939143    -1.5967896805
   53      H       0.4017878945    -3.2391130321    -0.5628654638
   54      H      -0.6929291577    -4.1219349093     0.7174414108
   55      H       0.3528323158    -0.5427211334     3.1095062929
   56      H       1.3879507649    -2.0136015921     2.8118772773
 ----------------------------------------------------------------

   10   -1510.2320376112      7.22E-09 Convergence criterion met
 Total energy in the final basis set = -1510.23203761
 Final energy is   -1510.23203761122
 **  OPTIMIZATION CONVERGED  **

                    Orbital Energies (a.u.)
 --------------------------------------------------------------

 Alpha MOs
 -- Occupied --
-18.954 -18.944 -18.936 -18.920 -18.903 -18.898 -18.892 -18.886
-18.882 -18.879 -10.115 -10.108 -10.105 -10.086 -10.079 -10.074
-10.066 -10.063 -10.062 -10.060 -10.055 -10.042 -10.041 -10.034
-10.033 -10.031 -10.024 -10.022 -10.019 -10.018  -1.031  -1.016
 -1.013  -0.988  -0.983  -0.975  -0.968  -0.955  -0.941  -0.940
 -0.768  -0.763  -0.728  -0.724  -0.713  -0.705  -0.680  -0.664
 -0.654  -0.605  -0.595  -0.583  -0.555  -0.547  -0.542  -0.538
 -0.520  -0.512  -0.488  -0.478  -0.467  -0.460  -0.457  -0.447
 -0.439  -0.434  -0.429  -0.425  -0.416  -0.414  -0.407  -0.395
 -0.393  -0.387  -0.374  -0.371  -0.365  -0.360  -0.355  -0.353
 -0.348  -0.340  -0.339  -0.335  -0.330  -0.330  -0.320  -0.317
 -0.314  -0.310  -0.308  -0.306  -0.301  -0.298  -0.286  -0.284
 -0.276  -0.273  -0.257  -0.252  -0.245  -0.239  -0.232  -0.204
 -0.181  -0.180  -0.174  -0.168  -0.161  -0.154  -0.149  -0.144
 -0.142

          Ground-State Mulliken Net Atomic Charges

     Atom                 Charge (a.u.)
  ----------------------------------------
      1 O                    -0.207238
      2 C                     0.217663
      3 C                    -0.081783
      4 C                    -0.095048
      5 C                     0.212279
      6 O                    -0.173452
      7 C                    -0.073549
      8 C                     0.022934
      9 O                    -0.168930
     10 C                     0.217440
     11 C                    -0.089173
     12 C                    -0.084154
     13 C                     0.158960
     14 O                    -0.170609
     15 O                    -0.180888
     16 O                    -0.161228
     17 O                    -0.232509
     18 C                    -0.149404
     19 C                     0.025880
     20 C                    -0.145575
     21 C                    -0.144056
     22 C                     0.024176
     23 O                    -0.186322
     24 H                     0.096774
     25 H                     0.080937
     26 H                     0.080564
     27 H                     0.076503
     28 H                     0.076995
     29 H                     0.077437
     30 H                     0.071200
     31 H                     0.088811
     32 O                    -0.206943
     33 C                    -0.135783
     34 C                     0.025558
     35 C                    -0.143679
     36 C                    -0.143817
     37 C                     0.024598
     38 O                    -0.187808
     39 H                     0.085483
     40 H                     0.111077
     41 H                     0.082839
     42 H                     0.089590
     43 H                     0.078730
     44 H                     0.074531
     45 H                     0.077761
     46 H                     0.077357
     47 H                     0.079149
     48 H                     0.105004
     49 H                     0.085040
     50 H                     0.113156
     51 H                     0.087903
     52 H                     0.081790
     53 H                     0.089815
     54 H                     0.063698
     55 H                     0.100543
     56 H                     0.099771
  ----------------------------------------
  Sum of atomic charges =     0.000000

                    Cartesian Multipole Moments
 -----------------------------------------------------------------
    Charge (ESU x 10^10)
                -0.0000
    Dipole Moment (Debye)
         X      -0.9791      Y       0.6112      Z      -2.1688
       Tot       2.4568
    Quadrupole Moments (Debye-Ang)
        XX    -180.1789     XY       5.5824     YY    -152.1969
        XZ       3.7388     YZ       2.3331     ZZ    -159.2560

 Total job time:  269.66s(wall), 12861.20s(cpu)
        *  Thank you very much for using Q-Chem.  Have a nice day.  *
