 Q-Chem 5.0, Q-Chem, Inc., Pleasanton, CA (2017)
 Q-Chem 5.0.1 for Intel X86 EM64T Linux

User input:
--------------------------------------------------------------
$molecule
0  1
O -3.94934 -3.66094 2.70899
C -3.26408 -4.56952 2.26188
C -3.36658 -6.02376 2.66595
C -2.57813 -6.46456 3.91009
C -1.91791 -5.36653 4.71416
O -0.929 -5.89366 5.49493
C -1.23347 -5.85299 6.8931
C -0.02587 -6.30552 7.70739
O 0.45595 -5.21877 8.51343
C 0.97754 -4.17113 7.82819
C 1.38672 -3.02681 8.72472
C 2.87025 -2.63865 8.64259
C 3.63163 -3.18626 7.45216
O 3.36933 -2.9627 6.27922
O -2.35586 -4.28708 1.29153
O 4.71721 -3.95017 7.74295
O 1.05876 -4.13101 6.60667
C 5.53955 -4.52419 6.79621
C 0.7237 -1.68206 8.36832
C 0.71272 -0.77524 9.5984
C 2.1889 -0.44742 9.72287
C 2.72845 -1.11859 8.45343
O 1.65835 -1.03167 7.54114
H 1.1062 -3.29395 9.77045
H 3.42218 -2.9241 9.56619
H -0.30327 -1.79502 7.95701
H 0.16639 0.15107 9.3085
H 0.24386 -1.20292 10.51059
H 2.3078 0.65758 9.67223
H 2.68888 -0.84522 10.63253
H 3.68366 -0.64653 8.13302
O -2.51611 -4.34583 5.0319
C -2.12675 -3.0247 0.78569
C -4.8038 -6.39809 3.07095
C -5.01582 -7.90263 2.91974
C -4.19542 -8.41539 4.08115
C -3.7456 -7.09183 4.71132
O -4.8195 -6.21956 4.46296
H -3.08561 -6.62041 1.76816
H -1.80358 -7.2267 3.66518
H -1.78475 -2.34476 1.59514
H -5.5791 -5.84467 2.49634
H -6.09052 -8.11086 3.12443
H -4.74334 -8.31659 1.92508
H -4.87591 -8.95799 4.77511
H -3.33645 -9.06626 3.80934
H -3.51798 -7.27265 5.77404
H -3.054 -2.62304 0.32388
H -1.33662 -3.08178 0.0092
H 6.34306 -5.09207 7.30841
H 6.00435 -3.737 6.16478
H 4.9579 -5.2234 6.15802
H -0.36427 -7.08649 8.42237
H 0.77361 -6.76566 7.08435
H -2.05486 -6.56042 7.10633
H -1.57997 -4.85237 7.24011
$end

$opt
CONSTRAINT
tors           1           2           3           4     -85.263
tors           3           4           5           6    -160.398
tors           4           5           6           7    -111.245
tors           5           6           7           8    -173.462
tors           6           7           8           9    +115.564
tors           7           8           9          10     -66.316
tors           8           9          10          11    +176.412
tors           9          10          11          12    +120.958
tors          11          12          13          14     +60.368
ENDCONSTRAINT
$end

$rem
JOBTYPE                   OPT
METHOD                    B3LYP
DFT_D                     d3_op
BASIS                     STO-3G
GEOM_OPT_MAX_CYCLES       100
GEOM_OPT_TOL_GRADIENT     300
GEOM_OPT_TOL_DISPLACEMENT 1200
GEOM_OPT_TOL_ENERGY       100
SYMMETRY                  False
THRESH                    12
SCF_CONVERGENCE           8
MAX_SUB_FILE_NUM          128
MEM_STATIC                400
MEM_TOTAL                 4000
$end
--------------------------------------------------------------

   15   -1510.1200582658      8.31E-09 Convergence criterion met
 Total energy in the final basis set = -1510.12005827
   14   -1510.1914580712      5.56E-09 Convergence criterion met
 Total energy in the final basis set = -1510.19145807
   14   -1510.2298482472      3.67E-09 Convergence criterion met
 Total energy in the final basis set = -1510.22984825
   14   -1510.2466082704      4.26E-09 Convergence criterion met
 Total energy in the final basis set = -1510.24660827
   13   -1510.2520272397      8.84E-09 Convergence criterion met
 Total energy in the final basis set = -1510.25202724
   13   -1510.2542013228      6.92E-09 Convergence criterion met
 Total energy in the final basis set = -1510.25420132
   13   -1510.2552162117      2.77E-09 Convergence criterion met
 Total energy in the final basis set = -1510.25521621
   13   -1510.2558031648      4.89E-09 Convergence criterion met
   11   -1510.2576510881      4.45E-09 Convergence criterion met
 Total energy in the final basis set = -1510.25765109
   11   -1510.2576631932      4.22E-09 Convergence criterion met
 Total energy in the final basis set = -1510.25766319
   11   -1510.2576757250      2.93E-09 Convergence criterion met
 Total energy in the final basis set = -1510.25767573
   11   -1510.2576865609      4.30E-09 Convergence criterion met
 Total energy in the final basis set = -1510.25768656
   11   -1510.2576940838      3.37E-09 Convergence criterion met
 Total energy in the final basis set = -1510.25769408
   11   -1510.2576967075      3.43E-09 Convergence criterion met
 Total energy in the final basis set = -1510.25769671

             Standard Nuclear Orientation (Angstroms)
    I     Atom           X                Y                Z
 ----------------------------------------------------------------
    1      O      -4.4057174315     2.0768434170     1.4123829846
    2      C      -4.3144172795     1.8475782615     0.1880770134
    3      C      -4.7364275468     0.5375075422    -0.5778831360
    4      C      -3.6225816249    -0.5912818882    -0.5882159745
    5      C      -2.2079295448    -0.1282719466    -0.0935329918
    6      O      -1.1675906784    -1.0408938687    -0.5527166006
    7      C      -0.6144653208    -1.7743316276     0.6041186962
    8      C       0.6157136374    -2.6180126909     0.0833376883
    9      O       1.9102465166    -2.1996146221     0.6693132215
   10      C       2.2544659080    -0.8712299225     0.2305331584
   11      C       3.5788386981    -0.4572786272     0.9553391042
   12      C       4.7982518727    -0.1001803062    -0.0019761179
   13      C       4.5163967146    -0.2556154318    -1.5342608555
   14      O       3.6636365733     0.3297538417    -2.2340929560
   15      O      -3.7994821990     2.7742604676    -0.7764618592
   16      O       5.4366868270    -1.2309249919    -2.0510164407
   17      O       1.5594697191    -0.2008302525    -0.5602616796
   18      C       5.2118674091    -1.4162658681    -3.5031473455
   19      C       3.3843004901     0.9285963567     1.7145150165
   20      C       4.5631154373     1.1017197996     2.7511418540
   21      C       5.7572437846     1.4688944605     1.7940487041
   22      C       5.0413524370     1.4253080569     0.3864877706
   23      O       3.6820126943     1.9332465078     0.6708830528
   24      H       3.8521479336    -1.2699494054     1.6510672735
   25      H       5.6765095290    -0.7239020033     0.2403463484
   26      H       2.3674168623     1.0870262912     2.1230508377
   27      H       4.3403268633     1.9213499603     3.4525981698
   28      H       4.7468509915     0.1817341040     3.3291133411
   29      H       6.1415643686     2.4809294460     1.9981807725
   30      H       6.5921659885     0.7531818429     1.8589905832
   31      H       5.5210731726     2.0292969695    -0.4077481079
   32      O      -1.9587595811     0.8901753136     0.5848038654
   33      C      -3.2843070442     3.9783537764    -0.0862435667
   34      C      -5.8792883040    -0.1958525100     0.2413591123
   35      C      -6.4949746285    -1.3542258685    -0.6401110629
   36      C      -5.3745971819    -2.4540944427    -0.5303020385
   37      C      -4.2986149381    -1.6976097656     0.3434531922
   38      O      -5.1166277216    -0.9152038248     1.2909326559
   39      H      -5.0441072522     0.8042700254    -1.6040330457
   40      H      -3.4867777609    -0.9968333601    -1.6074937484
   41      H      -2.4885403649     3.7138831788     0.6397485597
   42      H      -6.6147772349     0.4875056736     0.7076816889
   43      H      -7.4480691558    -1.7031317316    -0.2120798668
   44      H      -6.6721343389    -1.0316929189    -1.6786158428
   45      H      -5.7374432316    -3.3479994203     0.0018766389
   46      H      -4.9776723066    -2.7619125511    -1.5108130804
   47      H      -3.5914516321    -2.3524240967     0.8870121790
   48      H      -4.0900669905     4.5183439818     0.4522701268
   49      H      -2.8661328263     4.6295124296    -0.8757149194
   50      H       5.9372995626    -2.1838085761    -3.8301872125
   51      H       5.3858819202    -0.4772863618    -4.0675829523
   52      H       4.1805874484    -1.7648734917    -3.7161010162
   53      H       0.5044344716    -3.6814302355     0.3731581748
   54      H       0.6346338431    -2.5413541853    -1.0264802846
   55      H      -1.3792060086    -2.4632956356     1.0303862638
   56      H      -0.2868783334    -1.0887481737     1.4188721396
 ----------------------------------------------------------------

   10   -1510.2576976969      4.29E-09 Convergence criterion met
 Total energy in the final basis set = -1510.25769770
 Final energy is   -1510.25769769688
 **  OPTIMIZATION CONVERGED  **

                    Orbital Energies (a.u.)
 --------------------------------------------------------------

 Alpha MOs
 -- Occupied --
-18.929 -18.929 -18.919 -18.905 -18.903 -18.890 -18.888 -18.877
-18.873 -18.859 -10.107 -10.094 -10.093 -10.086 -10.074 -10.073
-10.065 -10.061 -10.059 -10.059 -10.058 -10.050 -10.037 -10.037
-10.035 -10.032 -10.022 -10.020 -10.020 -10.019  -1.011  -1.007
 -1.004  -0.994  -0.972  -0.969  -0.938  -0.934  -0.929  -0.921
 -0.762  -0.761  -0.724  -0.721  -0.712  -0.705  -0.696  -0.661
 -0.652  -0.615  -0.596  -0.581  -0.546  -0.544  -0.538  -0.536
 -0.515  -0.510  -0.479  -0.464  -0.458  -0.449  -0.448  -0.446
 -0.436  -0.431  -0.429  -0.411  -0.409  -0.407  -0.401  -0.398
 -0.393  -0.382  -0.368  -0.365  -0.357  -0.350  -0.348  -0.347
 -0.343  -0.338  -0.337  -0.331  -0.329  -0.327  -0.325  -0.312
 -0.307  -0.305  -0.305  -0.304  -0.294  -0.278  -0.274  -0.273
 -0.269  -0.255  -0.248  -0.246  -0.242  -0.235  -0.233  -0.179
 -0.172  -0.164  -0.159  -0.156  -0.154  -0.146  -0.143  -0.138
 -0.137

          Ground-State Mulliken Net Atomic Charges

     Atom                 Charge (a.u.)
  ----------------------------------------
      1 O                    -0.212585
      2 C                     0.212819
      3 C                    -0.081076
      4 C                    -0.081786
      5 C                     0.221874
      6 O                    -0.187730
      7 C                    -0.045250
      8 C                    -0.049353
      9 O                    -0.175521
     10 C                     0.202295
     11 C                    -0.079538
     12 C                    -0.079593
     13 C                     0.203201
     14 O                    -0.201096
     15 O                    -0.173296
     16 O                    -0.172439
     17 O                    -0.192058
     18 C                    -0.129563
     19 C                     0.027015
     20 C                    -0.144044
     21 C                    -0.143848
     22 C                     0.027006
     23 O                    -0.181969
     24 H                     0.085707
     25 H                     0.086001
     26 H                     0.085046
     27 H                     0.078661
     28 H                     0.073579
     29 H                     0.078237
     30 H                     0.073671
     31 H                     0.084017
     32 O                    -0.177443
     33 C                    -0.128487
     34 C                     0.025989
     35 C                    -0.144896
     36 C                    -0.142526
     37 C                     0.025441
     38 O                    -0.185540
     39 H                     0.085257
     40 H                     0.087329
     41 H                     0.094971
     42 H                     0.086544
     43 H                     0.078178
     44 H                     0.074351
     45 H                     0.077767
     46 H                     0.074345
     47 H                     0.078191
     48 H                     0.084942
     49 H                     0.088187
     50 H                     0.088762
     51 H                     0.088321
     52 H                     0.088792
     53 H                     0.087744
     54 H                     0.097042
     55 H                     0.071943
     56 H                     0.086413
  ----------------------------------------
  Sum of atomic charges =    -0.000000

                    Cartesian Multipole Moments
 -----------------------------------------------------------------
    Charge (ESU x 10^10)
                -0.0000
    Dipole Moment (Debye)
         X       1.1398      Y      -3.1526      Z      -0.5732
       Tot       3.4010
    Quadrupole Moments (Debye-Ang)
        XX    -139.7919     XY       3.1512     YY    -153.1081
        XZ      12.0638     YZ       2.3206     ZZ    -158.5365

 Total job time:  70.49s(wall), 3354.16s(cpu)
        *  Thank you very much for using Q-Chem.  Have a nice day.  *
