 Q-Chem 5.0, Q-Chem, Inc., Pleasanton, CA (2017)
 Q-Chem 5.0.1 for Intel X86 EM64T Linux

User input:
--------------------------------------------------------------
$molecule
0  1
O -4.4057174315 2.076843417 1.4123829846
C -4.3144172795 1.8475782615 0.1880770134
C -4.7364275468 0.5375075422 -0.577883136
C -3.6225816249 -0.5912818882 -0.5882159745
C -2.2079295448 -0.1282719466 -0.0935329918
O -1.1675906784 -1.0408938687 -0.5527166006
C -0.6144653208 -1.7743316276 0.6041186962
C 0.6157136374 -2.6180126909 0.0833376883
O 1.9102465166 -2.1996146221 0.6693132215
C 2.254465908 -0.8712299225 0.2305331584
C 3.5788386981 -0.4572786272 0.9553391042
C 4.7982518727 -0.1001803062 -0.0019761179
C 4.5163967146 -0.2556154318 -1.5342608555
O 3.6636365733 0.3297538417 -2.234092956
O -3.799482199 2.7742604676 -0.7764618592
O 5.436686827 -1.2309249919 -2.0510164407
O 1.5594697191 -0.2008302525 -0.5602616796
C 5.2118674091 -1.4162658681 -3.5031473455
C 3.3843004901 0.9285963567 1.7145150165
C 4.5631154373 1.1017197996 2.751141854
C 5.7572437846 1.4688944605 1.7940487041
C 5.041352437 1.4253080569 0.3864877706
O 3.6820126943 1.9332465078 0.6708830528
H 3.8521479336 -1.2699494054 1.6510672735
H 5.676509529 -0.7239020033 0.2403463484
H 2.3674168623 1.0870262912 2.1230508377
H 4.3403268633 1.9213499603 3.4525981698
H 4.7468509915 0.181734104 3.3291133411
H 6.1415643686 2.480929446 1.9981807725
H 6.5921659885 0.7531818429 1.8589905832
H 5.5210731726 2.0292969695 -0.4077481079
O -1.9587595811 0.8901753136 0.5848038654
C -3.2843070442 3.9783537764 -0.0862435667
C -5.879288304 -0.19585251 0.2413591123
C -6.4949746285 -1.3542258685 -0.6401110629
C -5.3745971819 -2.4540944427 -0.5303020385
C -4.2986149381 -1.6976097656 0.3434531922
O -5.1166277216 -0.9152038248 1.2909326559
H -5.0441072522 0.8042700254 -1.6040330457
H -3.4867777609 -0.9968333601 -1.6074937484
H -2.4885403649 3.7138831788 0.6397485597
H -6.6147772349 0.4875056736 0.7076816889
H -7.4480691558 -1.7031317316 -0.2120798668
H -6.6721343389 -1.0316929189 -1.6786158428
H -5.7374432316 -3.3479994203 0.0018766389
H -4.9776723066 -2.7619125511 -1.5108130804
H -3.5914516321 -2.3524240967 0.887012179
H -4.0900669905 4.5183439818 0.4522701268
H -2.8661328263 4.6295124296 -0.8757149194
H 5.9372995626 -2.1838085761 -3.8301872125
H 5.3858819202 -0.4772863618 -4.0675829523
H 4.1805874484 -1.7648734917 -3.7161010162
H 0.5044344716 -3.6814302355 0.3731581748
H 0.6346338431 -2.5413541853 -1.0264802846
H -1.3792060086 -2.4632956356 1.0303862638
H -0.2868783334 -1.0887481737 1.4188721396
$end

$rem
JOBTYPE                   OPT
METHOD                    B3LYP
DFT_D                     d3_op
BASIS                     STO-3G
GEOM_OPT_MAX_CYCLES       100
GEOM_OPT_TOL_GRADIENT     300
GEOM_OPT_TOL_DISPLACEMENT 1200
GEOM_OPT_TOL_ENERGY       100
SYMMETRY                  False
THRESH                    12
SCF_CONVERGENCE           8
MAX_SUB_FILE_NUM          128
MEM_STATIC                400
MEM_TOTAL                 4000
$end
--------------------------------------------------------------

   16   -1510.2577377432      6.26E-09 Convergence criterion met
 Total energy in the final basis set = -1510.25773774
   15   -1510.2616393050      2.86E-09 Convergence criterion met
 Total energy in the final basis set = -1510.26163930
   15   -1510.2661017909      2.48E-09 Convergence criterion met
 Total energy in the final basis set = -1510.26610179
   15   -1510.2686048393      3.32E-09 Convergence criterion met
 Total energy in the final basis set = -1510.26860484
   14   -1510.2733134480      6.42E-09 Convergence criterion met
 Total energy in the final basis set = -1510.27331345
   15   -1510.2764755260      2.43E-09 Convergence criterion met
 Total energy in the final basis set = -1510.27647553
   14   -1510.2783286943      1.74E-09 Convergence criterion met
 Total energy in the final basis set = -1510.27832869
   14   -1510.2794991657      5.12E-09 Convergence criterion met
   12   -1510.3028327717      6.35E-09 Convergence criterion met
 Total energy in the final basis set = -1510.30283277
   10   -1510.3028231338      6.23E-09 Convergence criterion met
 Total energy in the final basis set = -1510.30282313
    9   -1510.3028289139      8.85E-09 Convergence criterion met
 Total energy in the final basis set = -1510.30282891
    9   -1510.3028317328      5.99E-09 Convergence criterion met
 Total energy in the final basis set = -1510.30283173
    9   -1510.3028342948      4.94E-09 Convergence criterion met
 Total energy in the final basis set = -1510.30283429
   10   -1510.3028365186      2.78E-09 Convergence criterion met
 Total energy in the final basis set = -1510.30283652

             Standard Nuclear Orientation (Angstroms)
    I     Atom           X                Y                Z
 ----------------------------------------------------------------
    1      O      -3.6802733568     2.2693798155     1.2812076590
    2      C      -2.5984426207     1.8838814525     0.7942882540
    3      C      -2.3720419086     0.9394574073    -0.4407542092
    4      C      -1.7762706932    -0.4815813581    -0.0812894007
    5      C      -1.6389970585    -0.6904236164     1.4563625012
    6      O      -0.9499965851    -1.9199215253     1.7084778587
    7      C      -0.6236451135    -2.0222517392     3.1505170447
    8      C       0.9194416226    -1.7703226784     3.3424347388
    9      O       1.3599918962    -0.5692288039     2.5860770366
   10      C       1.7729368040    -0.9521484444     1.2699667576
   11      C       2.2940765507     0.2997031514     0.4860349812
   12      C       2.9190568750    -0.1081061504    -0.9145185130
   13      C       2.9615170553    -1.6557460467    -1.2058633039
   14      O       2.2359465847    -2.2920802596    -1.9994122427
   15      O      -1.3077210347     2.3867948087     1.2058799635
   16      O       4.1100512086    -2.1998726601    -0.5352582365
   17      O       1.7542624327    -2.1320709146     0.8488864400
   18      C       4.1554180292    -3.6640066274    -0.7394754543
   19      C       1.1262742309     1.2714340186     0.0157596683
   20      C       1.7758406801     2.6063001598    -0.5241005391
   21      C       2.3047916832     2.1591783648    -1.9373542038
   22      C       1.9374890738     0.6274473122    -1.9180034092
   23      O       0.6338801710     0.6066328976    -1.2128029548
   24      H       3.0219805427     0.8319291892     1.1247385661
   25      H       3.9498473055     0.2795745288    -0.9986267837
   26      H       0.2864736070     1.4482505873     0.7269735275
   27      H       1.0075960364     3.3914480911    -0.6060425590
   28      H       2.5810622683     2.9676621080     0.1348702497
   29      H       1.7694403853     2.6747814552    -2.7507572975
   30      H       3.3862645960     2.3265390994    -2.0632779643
   31      H       1.8470817286     0.1324429007    -2.9043828506
   32      O      -2.0532676901     0.0713059202     2.3621798214
   33      C      -1.4449602992     3.2019494484     2.4298971073
   34      C      -3.7285567119     0.5290860071    -1.1491147074
   35      C      -3.3820688451     0.0212758723    -2.6032169319
   36      C      -2.7317781023    -1.3765748293    -2.2876738631
   37      C      -2.8750620247    -1.4354564222    -0.7155907623
   38      O      -4.1376522217    -0.7102072986    -0.4442459761
   39      H      -1.6828244523     1.4499233808    -1.1381858399
   40      H      -0.7794075937    -0.5960176017    -0.5579831352
   41      H      -1.8187347813     2.5894183817     3.2759613808
   42      H      -4.5289525055     1.2911863646    -1.0798868516
   43      H      -4.3006904466    -0.0867023399    -3.2019146869
   44      H      -2.6936159944     0.7019030884    -3.1289821444
   45      H      -3.2916903800    -2.2005648159    -2.7578418360
   46      H      -1.6782409509    -1.4361970636    -2.6048754847
   47      H      -2.9035749571    -2.4537464923    -0.2812088280
   48      H      -2.1360348474     4.0559149667     2.2772104799
   49      H      -0.4327724782     3.5800653643     2.6643199180
   50      H       5.0799599178    -4.0164520471    -0.2461724641
   51      H       4.1841398556    -3.9289038071    -1.8163440922
   52      H       3.2761684398    -4.1592780912    -0.2782567862
   53      H       1.1403072016    -1.5691599030     4.4102636823
   54      H       1.4886427228    -2.6569853310     2.9929792830
   55      H      -0.8866531812    -3.0427675211     3.4964841907
   56      H      -1.2186276176    -1.2603497275     3.6986896463
 ----------------------------------------------------------------

    9   -1510.3028368602      3.45E-09 Convergence criterion met
 Total energy in the final basis set = -1510.30283686
 Final energy is   -1510.30283686019
 **  OPTIMIZATION CONVERGED  **

                    Orbital Energies (a.u.)
 --------------------------------------------------------------

 Alpha MOs
 -- Occupied --
-18.945 -18.939 -18.923 -18.918 -18.892 -18.890 -18.884 -18.877
-18.864 -18.858 -10.109 -10.103 -10.091 -10.090 -10.078 -10.073
-10.060 -10.057 -10.054 -10.052 -10.051 -10.049 -10.042 -10.033
-10.024 -10.023 -10.021 -10.018 -10.011 -10.010  -1.027  -1.015
 -0.999  -0.997  -0.974  -0.961  -0.947  -0.940  -0.926  -0.923
 -0.764  -0.755  -0.728  -0.718  -0.710  -0.703  -0.692  -0.655
 -0.654  -0.620  -0.595  -0.575  -0.545  -0.539  -0.537  -0.529
 -0.509  -0.505  -0.489  -0.472  -0.461  -0.458  -0.451  -0.440
 -0.430  -0.427  -0.421  -0.420  -0.406  -0.405  -0.404  -0.401
 -0.397  -0.383  -0.371  -0.364  -0.362  -0.356  -0.350  -0.345
 -0.341  -0.335  -0.334  -0.330  -0.328  -0.324  -0.317  -0.312
 -0.307  -0.305  -0.302  -0.297  -0.293  -0.277  -0.274  -0.272
 -0.267  -0.257  -0.248  -0.246  -0.244  -0.236  -0.222  -0.198
 -0.174  -0.167  -0.163  -0.162  -0.160  -0.151  -0.142  -0.141
 -0.136

          Ground-State Mulliken Net Atomic Charges

     Atom                 Charge (a.u.)
  ----------------------------------------
      1 O                    -0.213095
      2 C                     0.218925
      3 C                    -0.084146
      4 C                    -0.087997
      5 C                     0.213261
      6 O                    -0.169264
      7 C                    -0.056462
      8 C                    -0.052207
      9 O                    -0.169978
     10 C                     0.214722
     11 C                    -0.079139
     12 C                    -0.082398
     13 C                     0.215861
     14 O                    -0.221303
     15 O                    -0.181092
     16 O                    -0.177588
     17 O                    -0.202538
     18 C                    -0.128559
     19 C                     0.011145
     20 C                    -0.144526
     21 C                    -0.143972
     22 C                     0.025177
     23 O                    -0.197489
     24 H                     0.087358
     25 H                     0.083902
     26 H                     0.108624
     27 H                     0.078913
     28 H                     0.072192
     29 H                     0.076836
     30 H                     0.073697
     31 H                     0.088748
     32 O                    -0.211181
     33 C                    -0.127751
     34 C                     0.023885
     35 C                    -0.143116
     36 C                    -0.143458
     37 C                     0.025076
     38 O                    -0.191648
     39 H                     0.090731
     40 H                     0.111966
     41 H                     0.093429
     42 H                     0.086637
     43 H                     0.075704
     44 H                     0.073726
     45 H                     0.076141
     46 H                     0.080567
     47 H                     0.083999
     48 H                     0.088130
     49 H                     0.085373
     50 H                     0.085243
     51 H                     0.086540
     52 H                     0.090888
     53 H                     0.090875
     54 H                     0.097949
     55 H                     0.089745
     56 H                     0.102942
  ----------------------------------------
  Sum of atomic charges =    -0.000000

                    Cartesian Multipole Moments
 -----------------------------------------------------------------
    Charge (ESU x 10^10)
                 0.0000
    Dipole Moment (Debye)
         X       3.5851      Y       0.6687      Z       0.7838
       Tot       3.7302
    Quadrupole Moments (Debye-Ang)
        XX    -168.9768     XY       3.2254     YY    -153.3644
        XZ       6.3373     YZ      -7.5544     ZZ    -150.7638

 Total job time:  174.53s(wall), 8324.62s(cpu)
        *  Thank you very much for using Q-Chem.  Have a nice day.  *
