 Q-Chem 5.0, Q-Chem, Inc., Pleasanton, CA (2017)
 Q-Chem 5.0.1 for Intel X86 EM64T Linux

User input:
--------------------------------------------------------------
$molecule
0  1
O -3.94934 -3.66094 2.70899
C -3.26408 -4.56952 2.26188
C -3.36658 -6.02376 2.66595
C -4.44865 -6.39278 3.69396
C -5.42307 -5.29853 4.06975
O -5.11951 -4.15339 3.39008
C -5.09252 -2.99224 4.2269
C -4.61658 -3.3645 5.62727
O -3.46497 -2.5808 5.97723
C -3.14405 -2.5721 7.29483
C -1.72039 -2.13812 7.55079
C -1.56191 -1.01782 8.58911
C -2.77151 -0.74987 9.46191
O -2.73745 -0.4208 10.63882
O -2.32677 -4.27819 1.32223
O -3.92352 -0.47328 8.79084
O -3.84652 -3.07332 8.16693
C -5.10344 -0.0719 9.38287
C -0.84726 -3.23993 8.18293
C 0.62237 -2.97033 7.86677
C 0.8719 -1.74102 8.71756
C -0.46371 -1.65043 9.46776
O -0.89657 -2.98595 9.56535
H -1.2669 -1.84895 6.57392
H -1.27147 -0.04928 8.12626
H -1.13179 -4.2658 7.86134
H 1.20083 -3.8218 8.29234
H 0.87641 -2.86073 6.79052
H 1.71202 -1.9617 9.41275
H 1.07653 -0.80566 8.15274
H -0.32312 -1.11269 10.43088
O -6.3804 -5.43133 4.82287
C -2.09113 -3.0123 0.82845
C -3.80556 -6.90871 1.48287
C -3.38484 -8.35719 1.72948
C -4.36649 -8.75636 2.81142
C -5.20482 -7.47853 2.91178
O -5.20617 -6.97207 1.5992
H -2.35289 -6.32541 3.01303
H -4.01109 -6.7701 4.64444
H -1.7807 -2.33253 1.65068
H -3.41258 -6.56005 0.50273
H -3.62188 -8.93533 0.8077
H -2.31214 -8.49506 1.98484
H -4.99164 -9.59308 2.42729
H -3.9124 -9.03839 3.786
H -6.20219 -7.70466 3.34953
H -3.00663 -2.61619 0.33917
H -1.27653 -3.06055 0.0771
H -5.87291 0.07274 8.59712
H -4.95666 0.88895 9.92068
H -5.4578 -0.85037 10.0918
H -5.44559 -3.04914 6.30605
H -4.3878 -4.41116 5.91671
H -6.17234 -2.73756 4.3425
H -4.737 -1.99357 3.84913
$end

$opt
CONSTRAINT
tors           1           2           3           4      +1.831
tors           3           4           5           6      -0.340
tors           4           5           6           7    -132.682
tors           5           6           7           8     +32.515
tors           6           7           8           9    +123.158
tors           7           8           9          10    +164.476
tors           8           9          10          11    +161.053
tors           9          10          11          12    +128.666
tors          11          12          13          14    +144.554
ENDCONSTRAINT
$end

$rem
JOBTYPE                   OPT
METHOD                    B3LYP
DFT_D                     d3_op
BASIS                     STO-3G
GEOM_OPT_MAX_CYCLES       100
GEOM_OPT_TOL_GRADIENT     300
GEOM_OPT_TOL_DISPLACEMENT 1200
GEOM_OPT_TOL_ENERGY       100
SYMMETRY                  False
THRESH                    12
SCF_CONVERGENCE           8
MAX_SUB_FILE_NUM          128
MEM_STATIC                400
MEM_TOTAL                 4000
$end
--------------------------------------------------------------

   20   -1509.8195249333      1.53E-09 Convergence criterion met
 Total energy in the final basis set = -1509.81952493
   15   -1509.9586169880      4.52E-09 Convergence criterion met
 Total energy in the final basis set = -1509.95861699
   15   -1510.0625080793      4.90E-09 Convergence criterion met
 Total energy in the final basis set = -1510.06250808
   14   -1510.1335693678      9.36E-09 Convergence criterion met
 Total energy in the final basis set = -1510.13356937
   14   -1510.1789810333      5.88E-09 Convergence criterion met
 Total energy in the final basis set = -1510.17898103
   14   -1510.2067795302      2.77E-09 Convergence criterion met
 Total energy in the final basis set = -1510.20677953
   14   -1510.2234377394      1.59E-09 Convergence criterion met
 Total energy in the final basis set = -1510.22343774
   12   -1510.2337363351      8.64E-09 Convergence criterion met
   12   -1510.2499169787      4.12E-09 Convergence criterion met
 Total energy in the final basis set = -1510.24991698
   12   -1510.2500517114      3.53E-09 Convergence criterion met
 Total energy in the final basis set = -1510.25005171
   11   -1510.2501064095      7.87E-09 Convergence criterion met
 Total energy in the final basis set = -1510.25010641
   11   -1510.2501310728      4.96E-09 Convergence criterion met
 Total energy in the final basis set = -1510.25013107
   11   -1510.2501273049      4.58E-09 Convergence criterion met
 Total energy in the final basis set = -1510.25012730
   11   -1510.2501350028      1.54E-09 Convergence criterion met
 Total energy in the final basis set = -1510.25013500

             Standard Nuclear Orientation (Angstroms)
    I     Atom           X                Y                Z
 ----------------------------------------------------------------
    1      O       1.7533156481     0.7424315947    -1.1728546010
    2      C       2.9086590576     1.1293683670    -0.9041412927
    3      C       3.8849044657     0.7289723292     0.2561375713
    4      C       3.4658100342    -0.3673222211     1.3088543563
    5      C       2.6307219034    -1.6332731976     0.8455042597
    6      O       2.3149778413    -1.6576633978    -0.5526927774
    7      C       0.8902774249    -1.9770221550    -0.8214573951
    8      C      -0.1652333358    -1.4813033939     0.2400301582
    9      O      -1.1363056326    -0.6362244047    -0.4990077150
   10      C      -2.3222374345    -0.4340371730     0.2864473754
   11      C      -3.0737444409     0.8167333138    -0.2943853891
   12      C      -4.6058872790     0.5600800610    -0.6066640449
   13      C      -5.0552075135    -0.9383318241    -0.4983105242
   14      O      -6.1533061597    -1.3716122132    -0.0907718564
   15      O       3.6054539394     2.1170463854    -1.6825672409
   16      O      -4.0174866834    -1.7607698349    -1.0484990217
   17      O      -2.5996260449    -1.0759187688     1.3227293751
   18      C      -4.3667121928    -3.1924100487    -0.9084079615
   19      C      -3.2036472708     1.9301062392     0.8338088135
   20      C      -3.7001375625     3.2751857373     0.1672162539
   21      C      -5.2318295809     2.9739410075    -0.0333017623
   22      C      -5.3108788547     1.4821986903     0.4734562228
   23      O      -4.3704989984     1.4660788531     1.6186534110
   24      H      -2.5241889665     1.1752657287    -1.1815436838
   25      H      -4.8478803647     0.9026846373    -1.6304840425
   26      H      -2.3142566403     2.0290327177     1.4859722249
   27      H      -3.5393614033     4.1263766739     0.8474671420
   28      H      -3.1804144059     3.4791773297    -0.7826111182
   29      H      -5.8557149265     3.6261230407     0.5987077678
   30      H      -5.5560420406     3.0802483315    -1.0808870241
   31      H      -6.3128180328     1.1258893079     0.7836509875
   32      O       2.2546095744    -2.5128959835     1.6542018252
   33      C       2.7562486861     2.5605455403    -2.8109778235
   34      C       5.3513105401     0.2408107897    -0.1546987441
   35      C       6.3363118685     0.8936838550     0.8877940204
   36      C       5.8932325462     0.1376984393     2.1971728230
   37      C       4.9154360156    -0.9605779058     1.6147254120
   38      O       5.3984146814    -1.1884329604     0.2276714002
   39      H       4.0070140878     1.6723227307     0.8232475960
   40      H       2.9659461591     0.0651356463     2.1943349758
   41      H       1.8147638112     3.0284369247    -2.4569001067
   42      H       5.6098785894     0.3772226114    -1.2223810593
   43      H       7.3808587765     0.6603503632     0.6248535586
   44      H       6.2209076909     1.9869540063     0.9585299705
   45      H       6.7479593791    -0.3344000338     2.7066199310
   46      H       5.3801106159     0.7992308928     2.9138938034
   47      H       4.8906906582    -1.9130968128     2.1791646689
   48      H       2.4962412109     1.7177891812    -3.4837532798
   49      H       3.3527654543     3.3069433686    -3.3671468368
   50      H      -3.5728120799    -3.7538930807    -1.4343126008
   51      H      -5.3518145325    -3.4184643009    -1.3646700876
   52      H      -4.3908606126    -3.4961283693     0.1582889859
   53      H      -0.6776513231    -2.3337684209     0.7343288922
   54      H       0.3203173600    -0.8706056700     1.0313938899
   55      H       0.7756958013    -3.0761483011    -0.9614094108
   56      H       0.6679442294    -1.4787236476    -1.7881293916
 ----------------------------------------------------------------

    9   -1510.2501354873      2.94E-09 Convergence criterion met
 Total energy in the final basis set = -1510.25013549
 Final energy is   -1510.25013548727
 **  OPTIMIZATION CONVERGED  **

                    Orbital Energies (a.u.)
 --------------------------------------------------------------

 Alpha MOs
 -- Occupied --
-18.936 -18.932 -18.922 -18.915 -18.888 -18.886 -18.879 -18.879
-18.877 -18.863 -10.102 -10.102 -10.100 -10.092 -10.069 -10.066
-10.066 -10.063 -10.061 -10.060 -10.059 -10.056 -10.040 -10.039
-10.036 -10.033 -10.022 -10.021 -10.020 -10.019  -1.013  -1.012
 -1.004  -0.999  -0.972  -0.968  -0.939  -0.937  -0.931  -0.926
 -0.764  -0.761  -0.725  -0.722  -0.709  -0.706  -0.694  -0.663
 -0.661  -0.614  -0.599  -0.583  -0.545  -0.544  -0.538  -0.536
 -0.513  -0.510  -0.480  -0.475  -0.461  -0.458  -0.449  -0.437
 -0.436  -0.431  -0.429  -0.412  -0.410  -0.410  -0.408  -0.400
 -0.390  -0.375  -0.375  -0.371  -0.363  -0.357  -0.353  -0.348
 -0.342  -0.340  -0.334  -0.331  -0.329  -0.323  -0.318  -0.315
 -0.310  -0.305  -0.304  -0.299  -0.294  -0.291  -0.286  -0.273
 -0.270  -0.257  -0.252  -0.245  -0.236  -0.232  -0.230  -0.180
 -0.177  -0.171  -0.165  -0.156  -0.150  -0.148  -0.145  -0.143
 -0.139

          Ground-State Mulliken Net Atomic Charges

     Atom                 Charge (a.u.)
  ----------------------------------------
      1 O                    -0.208784
      2 C                     0.211817
      3 C                    -0.080555
      4 C                    -0.077367
      5 C                     0.216052
      6 O                    -0.177872
      7 C                    -0.041888
      8 C                    -0.048957
      9 O                    -0.171840
     10 C                     0.212906
     11 C                    -0.078445
     12 C                    -0.079302
     13 C                     0.214519
     14 O                    -0.209728
     15 O                    -0.174979
     16 O                    -0.169758
     17 O                    -0.218173
     18 C                    -0.128099
     19 C                     0.025628
     20 C                    -0.144551
     21 C                    -0.143195
     22 C                     0.024178
     23 O                    -0.186515
     24 H                     0.086758
     25 H                     0.084130
     26 H                     0.081781
     27 H                     0.077374
     28 H                     0.073134
     29 H                     0.078130
     30 H                     0.072887
     31 H                     0.090584
     32 O                    -0.205613
     33 C                    -0.128839
     34 C                     0.026671
     35 C                    -0.140704
     36 C                    -0.146410
     37 C                     0.023675
     38 O                    -0.190749
     39 H                     0.083278
     40 H                     0.085078
     41 H                     0.086645
     42 H                     0.088135
     43 H                     0.078117
     44 H                     0.074457
     45 H                     0.079088
     46 H                     0.073393
     47 H                     0.086358
     48 H                     0.089052
     49 H                     0.089592
     50 H                     0.090619
     51 H                     0.090977
     52 H                     0.093080
     53 H                     0.096269
     54 H                     0.083582
     55 H                     0.081158
     56 H                     0.103220
  ----------------------------------------
  Sum of atomic charges =    -0.000000

                    Cartesian Multipole Moments
 -----------------------------------------------------------------
    Charge (ESU x 10^10)
                -0.0000
    Dipole Moment (Debye)
         X       1.5090      Y       3.1990      Z      -2.0914
       Tot       4.1091
    Quadrupole Moments (Debye-Ang)
        XX    -165.0758     XY       4.6726     YY    -153.0733
        XZ      14.2171     YZ       1.7103     ZZ    -158.6611

 Total job time:  83.88s(wall), 3993.76s(cpu)
        *  Thank you very much for using Q-Chem.  Have a nice day.  *
