 Q-Chem 5.0, Q-Chem, Inc., Pleasanton, CA (2017)
 Q-Chem 5.0.1 for Intel X86 EM64T Linux

User input:
--------------------------------------------------------------
$molecule
0  1
O 1.7533156481 0.7424315947 -1.172854601
C 2.9086590576 1.129368367 -0.9041412927
C 3.8849044657 0.7289723292 0.2561375713
C 3.4658100342 -0.3673222211 1.3088543563
C 2.6307219034 -1.6332731976 0.8455042597
O 2.3149778413 -1.6576633978 -0.5526927774
C 0.8902774249 -1.977022155 -0.8214573951
C -0.1652333358 -1.4813033939 0.2400301582
O -1.1363056326 -0.6362244047 -0.499007715
C -2.3222374345 -0.434037173 0.2864473754
C -3.0737444409 0.8167333138 -0.2943853891
C -4.605887279 0.560080061 -0.6066640449
C -5.0552075135 -0.9383318241 -0.4983105242
O -6.1533061597 -1.3716122132 -0.0907718564
O 3.6054539394 2.1170463854 -1.6825672409
O -4.0174866834 -1.7607698349 -1.0484990217
O -2.5996260449 -1.0759187688 1.3227293751
C -4.3667121928 -3.1924100487 -0.9084079615
C -3.2036472708 1.9301062392 0.8338088135
C -3.7001375625 3.2751857373 0.1672162539
C -5.2318295809 2.9739410075 -0.0333017623
C -5.3108788547 1.4821986903 0.4734562228
O -4.3704989984 1.4660788531 1.618653411
H -2.5241889665 1.1752657287 -1.1815436838
H -4.8478803647 0.9026846373 -1.6304840425
H -2.3142566403 2.0290327177 1.4859722249
H -3.5393614033 4.1263766739 0.847467142
H -3.1804144059 3.4791773297 -0.7826111182
H -5.8557149265 3.6261230407 0.5987077678
H -5.5560420406 3.0802483315 -1.0808870241
H -6.3128180328 1.1258893079 0.7836509875
O 2.2546095744 -2.5128959835 1.6542018252
C 2.7562486861 2.5605455403 -2.8109778235
C 5.3513105401 0.2408107897 -0.1546987441
C 6.3363118685 0.893683855 0.8877940204
C 5.8932325462 0.1376984393 2.197172823
C 4.9154360156 -0.9605779058 1.614725412
O 5.3984146814 -1.1884329604 0.2276714002
H 4.0070140878 1.6723227307 0.823247596
H 2.9659461591 0.0651356463 2.1943349758
H 1.8147638112 3.0284369247 -2.4569001067
H 5.6098785894 0.3772226114 -1.2223810593
H 7.3808587765 0.6603503632 0.6248535586
H 6.2209076909 1.9869540063 0.9585299705
H 6.7479593791 -0.3344000338 2.706619931
H 5.3801106159 0.7992308928 2.9138938034
H 4.8906906582 -1.9130968128 2.1791646689
H 2.4962412109 1.7177891812 -3.4837532798
H 3.3527654543 3.3069433686 -3.3671468368
H -3.5728120799 -3.7538930807 -1.4343126008
H -5.3518145325 -3.4184643009 -1.3646700876
H -4.3908606126 -3.4961283693 0.1582889859
H -0.6776513231 -2.3337684209 0.7343288922
H 0.32031736 -0.87060567 1.0313938899
H 0.7756958013 -3.0761483011 -0.9614094108
H 0.6679442294 -1.4787236476 -1.7881293916
$end

$rem
JOBTYPE                   OPT
METHOD                    B3LYP
DFT_D                     d3_op
BASIS                     STO-3G
GEOM_OPT_MAX_CYCLES       100
GEOM_OPT_TOL_GRADIENT     300
GEOM_OPT_TOL_DISPLACEMENT 1200
GEOM_OPT_TOL_ENERGY       100
SYMMETRY                  False
THRESH                    12
SCF_CONVERGENCE           8
MAX_SUB_FILE_NUM          128
MEM_STATIC                400
MEM_TOTAL                 4000
$end
--------------------------------------------------------------

   16   -1510.2497937379      4.84E-09 Convergence criterion met
 Total energy in the final basis set = -1510.24979374
   15   -1510.2553915552      3.41E-09 Convergence criterion met
 Total energy in the final basis set = -1510.25539156
   14   -1510.2607423243      4.96E-09 Convergence criterion met
 Total energy in the final basis set = -1510.26074232
   14   -1510.2653580250      5.08E-09 Convergence criterion met
 Total energy in the final basis set = -1510.26535802
   14   -1510.2693182855      1.66E-09 Convergence criterion met
 Total energy in the final basis set = -1510.26931829
   13   -1510.2725752177      9.48E-09 Convergence criterion met
 Total energy in the final basis set = -1510.27257522
   13   -1510.2755740023      9.75E-09 Convergence criterion met
 Total energy in the final basis set = -1510.27557400
   14   -1510.2785198010      6.52E-09 Convergence criterion met
   12   -1510.2969260060      6.87E-09 Convergence criterion met
 Total energy in the final basis set = -1510.29692601
   11   -1510.2969351341      9.16E-09 Convergence criterion met
 Total energy in the final basis set = -1510.29693513
   11   -1510.2969253738      5.42E-09 Convergence criterion met
 Total energy in the final basis set = -1510.29692537
   11   -1510.2969281047      5.59E-09 Convergence criterion met
 Total energy in the final basis set = -1510.29692810
   10   -1510.2969205311      4.86E-09 Convergence criterion met
 Total energy in the final basis set = -1510.29692053
    9   -1510.2969235173      3.72E-09 Convergence criterion met
 Total energy in the final basis set = -1510.29692352

             Standard Nuclear Orientation (Angstroms)
    I     Atom           X                Y                Z
 ----------------------------------------------------------------
    1      O      -2.2438548651     0.9363675873    -2.4128811445
    2      C      -2.6000932533     1.3362537812    -1.2799874959
    3      C      -3.8152655390     0.7771292380    -0.4563596459
    4      C      -4.0010601659    -0.7881164843    -0.6474116874
    5      C      -2.9163688814    -1.4552220190    -1.5634930010
    6      O      -1.6485629165    -1.3979838088    -0.8893035521
    7      C      -0.5825121165    -1.9547122205    -1.7522208747
    8      C       0.1705906834    -0.7971817780    -2.5021968427
    9      O       0.6682997668     0.2393422833    -1.5652760742
   10      C       1.7856228016    -0.2194431169    -0.8013011804
   11      C       2.1956469605     0.9164382800     0.1924442294
   12      C       3.3194434059     0.4747109388     1.2139482702
   13      C       3.7462873889    -1.0356707924     1.0995912132
   14      O       4.8191468740    -1.4890754828     0.6492983447
   15      O      -1.9620798364     2.3883107657    -0.5660138798
   16      O       2.7276621001    -1.8245277821     1.7330991793
   17      O       2.3260631480    -1.3367976307    -0.9555118038
   18      C       3.0398263137    -3.2620306055     1.5781471225
   19      C       2.9380529060     2.0952440117    -0.5785149707
   20      C       3.0306720833     3.3427129998     0.3855272206
   21      C       4.1757588877     2.8859752429     1.3647839488
   22      C       4.5009737455     1.4477033150     0.8017361410
   23      O       4.3311729300     1.6065259675    -0.6627121803
   24      H       1.2856604993     1.2756128050     0.7055410441
   25      H       2.9846465292     0.6567904131     2.2508389584
   26      H       2.5338200761     2.3051294574    -1.5877612678
   27      H       3.3152671699     4.2446139667    -0.1793389170
   28      H       2.0780285354     3.5365092644     0.9042043890
   29      H       5.0583255526     3.5402567392     1.2842266892
   30      H       3.8500917342     2.8571116965     2.4166797179
   31      H       5.5106462552     1.0546787827     1.0296323577
   32      O      -3.1047717642    -2.0269141391    -2.6595949862
   33      C      -0.7460859502     2.8222370393    -1.3010727349
   34      C      -3.6243822190     0.8747821816     1.1142886111
   35      C      -5.0325473922     0.6595084617     1.7971058094
   36      C      -5.2259249116    -0.8910373218     1.6110090706
   37      C      -3.8892698489    -1.2780393506     0.8619526712
   38      O      -2.8841113754    -0.3633701400     1.4488913883
   39      H      -4.7233821236     1.3188786009    -0.7811590024
   40      H      -4.9881622054    -1.0234413244    -1.0820947501
   41      H      -1.0088187952     3.3142875835    -2.2591940913
   42      H      -3.0606007076     1.7686714725     1.4427976662
   43      H      -4.9900683786     0.9363466850     2.8625504858
   44      H      -5.8250617912     1.2498957034     1.3102468519
   45      H      -5.2871737727    -1.4101632622     2.5807529178
   46      H      -6.1206645264    -1.1418035923     1.0190252846
   47      H      -3.5703590926    -2.3315757125     0.9803290817
   48      H      -0.0902296715     1.9407869161    -1.4966201609
   49      H      -0.2385644634     3.5488803240    -0.6411625213
   50      H       2.2492560475    -3.8093932572     2.1238859678
   51      H       4.0316783082    -3.5163170283     2.0047902405
   52      H       3.0281602181    -3.5598367171     0.5094050991
   53      H       1.0039996739    -1.2212460379    -3.1028534059
   54      H      -0.5476845077    -0.2555637790    -3.1510618898
   55      H      -1.0280278329    -2.6389233294    -2.5069615457
   56      H       0.1194818716    -2.5049364201    -1.0943757759
 ----------------------------------------------------------------

    9   -1510.2969242137      1.76E-09 Convergence criterion met
 Total energy in the final basis set = -1510.29692421
 Final energy is   -1510.29692421366
 **  OPTIMIZATION CONVERGED  **

                    Orbital Energies (a.u.)
 --------------------------------------------------------------

 Alpha MOs
 -- Occupied --
-18.949 -18.938 -18.927 -18.919 -18.890 -18.888 -18.888 -18.874
-18.871 -18.861 -10.111 -10.102 -10.097 -10.089 -10.074 -10.067
-10.063 -10.061 -10.058 -10.057 -10.053 -10.050 -10.041 -10.039
-10.037 -10.033 -10.023 -10.021 -10.020 -10.020  -1.024  -1.015
 -1.005  -0.997  -0.971  -0.970  -0.949  -0.937  -0.932  -0.924
 -0.765  -0.763  -0.729  -0.723  -0.714  -0.707  -0.696  -0.658
 -0.654  -0.619  -0.598  -0.581  -0.547  -0.545  -0.538  -0.537
 -0.517  -0.508  -0.487  -0.467  -0.466  -0.456  -0.454  -0.444
 -0.436  -0.433  -0.432  -0.417  -0.412  -0.407  -0.403  -0.402
 -0.393  -0.384  -0.374  -0.369  -0.359  -0.353  -0.352  -0.348
 -0.343  -0.341  -0.335  -0.332  -0.330  -0.326  -0.324  -0.313
 -0.312  -0.306  -0.305  -0.302  -0.294  -0.290  -0.278  -0.277
 -0.274  -0.265  -0.247  -0.244  -0.241  -0.235  -0.234  -0.194
 -0.179  -0.167  -0.164  -0.161  -0.157  -0.150  -0.146  -0.143
 -0.141

          Ground-State Mulliken Net Atomic Charges

     Atom                 Charge (a.u.)
  ----------------------------------------
      1 O                    -0.221421
      2 C                     0.215831
      3 C                    -0.078080
      4 C                    -0.079627
      5 C                     0.212071
      6 O                    -0.172679
      7 C                    -0.056122
      8 C                    -0.051610
      9 O                    -0.172122
     10 C                     0.220873
     11 C                    -0.078871
     12 C                    -0.081121
     13 C                     0.215688
     14 O                    -0.215479
     15 O                    -0.169803
     16 O                    -0.175622
     17 O                    -0.205407
     18 C                    -0.128533
     19 C                     0.024462
     20 C                    -0.143976
     21 C                    -0.143795
     22 C                     0.024834
     23 O                    -0.188662
     24 H                     0.090919
     25 H                     0.085019
     26 H                     0.083226
     27 H                     0.078027
     28 H                     0.072916
     29 H                     0.078322
     30 H                     0.073966
     31 H                     0.089993
     32 O                    -0.215317
     33 C                    -0.144869
     34 C                     0.023510
     35 C                    -0.144118
     36 C                    -0.144148
     37 C                     0.026534
     38 O                    -0.186932
     39 H                     0.084695
     40 H                     0.084526
     41 H                     0.081871
     42 H                     0.091204
     43 H                     0.077582
     44 H                     0.072912
     45 H                     0.077813
     46 H                     0.073693
     47 H                     0.083681
     48 H                     0.112281
     49 H                     0.081207
     50 H                     0.086431
     51 H                     0.086896
     52 H                     0.090877
     53 H                     0.092446
     54 H                     0.109896
     55 H                     0.100283
     56 H                     0.093829
  ----------------------------------------
  Sum of atomic charges =    -0.000000

                    Cartesian Multipole Moments
 -----------------------------------------------------------------
    Charge (ESU x 10^10)
                 0.0000
    Dipole Moment (Debye)
         X      -2.4318      Y       1.8180      Z       1.8546
       Tot       3.5579
    Quadrupole Moments (Debye-Ang)
        XX    -163.8161     XY       2.8805     YY    -151.0546
        XZ      -0.3067     YZ      -1.8372     ZZ    -162.8470

 Total job time:  173.53s(wall), 8278.26s(cpu)
        *  Thank you very much for using Q-Chem.  Have a nice day.  *
