 Q-Chem 5.0, Q-Chem, Inc., Pleasanton, CA (2017)
 Q-Chem 5.0.1 for Intel X86 EM64T Linux

User input:
--------------------------------------------------------------
$molecule
0  1
O -3.8710442689 2.4277097772 1.2558340072
C -3.8515918423 1.7724611029 0.1928873301
C -4.6383579949 0.4503230239 -0.1220813837
C -3.8507071963 -0.675357757 -0.8992380005
C -2.2852759905 -0.6888522827 -0.7084792764
O -1.8817389606 0.3887143084 0.1344237118
C -0.4126028295 0.5867822021 0.2271463222
C 0.434042326 -0.7110469711 0.4868882476
O 1.8437824304 -0.2634695974 0.4942415961
C 2.6824566361 -1.1294951347 1.2560535766
C 4.1817526196 -0.9121981761 0.8516393212
C 4.4840229748 -0.4125113769 -0.6271108697
C 3.2803507018 0.2399452046 -1.4050792142
O 2.8458985255 1.4086487189 -1.3153029359
O -3.3066598642 2.2598904574 -1.0462670557
O 2.7247655547 -0.7677308836 -2.2689627484
O 2.263865665 -1.9573480449 2.0952289794
C 1.5315311215 -0.2435919268 -2.9733771585
C 4.9524831371 0.1887299134 1.7151588526
C 6.4763587868 -0.2197981417 1.7323937917
C 6.8768220793 0.0859493312 0.2410245449
C 5.5435220099 0.7294106775 -0.3144423649
O 4.9422769051 1.3973061326 0.864896382
H 4.6648018221 -1.8934526481 1.0101286416
H 4.8958112382 -1.2315571217 -1.242601504
H 4.5031620309 0.4005322217 2.7047848386
H 7.0339498927 0.4181436062 2.4368547618
H 6.6276399859 -1.2744838363 2.0123865058
H 7.709198573 0.8047668448 0.1820894681
H 7.1547999672 -0.8221379941 -0.3176859567
H 5.6787493331 1.4576445635 -1.1372084399
O -1.5175963381 -1.495968199 -1.281820245
C -2.6039231453 3.5401183606 -0.8153571451
C -5.1796648987 -0.3470763464 1.1393285806
C -6.5107902348 -1.0641481156 0.6906389824
C -5.9354408301 -2.1353990758 -0.3096192093
C -4.3789977331 -1.9529007358 -0.1067264216
O -4.2422418621 -1.4859803989 1.2955334905
H -5.4950537169 0.7632757558 -0.748716096
H -4.0774651045 -0.6986913382 -1.979898793
H -1.7051992141 3.4018547002 -0.1797223916
H -5.2324475049 0.2513703578 2.0698168171
H -6.9982447917 -1.5433442424 1.5550735464
H -7.2266102437 -0.3743775365 0.2157049802
H -6.2440716692 -3.1569456268 -0.0368527028
H -6.2368304174 -1.9449411714 -1.3525358732
H -3.7731796648 -2.8648326378 -0.2754251362
H -3.2628698924 4.2895909832 -0.3313211585
H -2.2940799018 3.9056068669 -1.8117984727
H 1.6599036847 -0.4058109964 -4.0611184671
H 1.4252906501 0.8390049768 -2.7569473972
H 0.6284411274 -0.7869575449 -2.6264450047
H 0.1649562554 -1.1840811748 1.455304608
H 0.2505948173 -1.4321016954 -0.3369476704
H -0.2727691917 1.3050062894 1.0600891128
H -0.0461976331 1.0612177157 -0.7101665036
$end

$rem
JOBTYPE                   OPT
METHOD                    B3LYP
DFT_D                     d3_op
BASIS                     STO-3G
GEOM_OPT_MAX_CYCLES       100
GEOM_OPT_TOL_GRADIENT     300
GEOM_OPT_TOL_DISPLACEMENT 1200
GEOM_OPT_TOL_ENERGY       100
SYMMETRY                  False
THRESH                    12
SCF_CONVERGENCE           8
MAX_SUB_FILE_NUM          128
MEM_STATIC                400
MEM_TOTAL                 4000
$end
--------------------------------------------------------------

   16   -1510.2716336315      4.90E-09 Convergence criterion met
 Total energy in the final basis set = -1510.27163363
   14   -1510.2760979975      4.72E-09 Convergence criterion met
 Total energy in the final basis set = -1510.27609800
   13   -1510.2791531609      6.80E-09 Convergence criterion met
 Total energy in the final basis set = -1510.27915316
   13   -1510.2818166610      3.94E-09 Convergence criterion met
 Total energy in the final basis set = -1510.28181666
   13   -1510.2838937321      3.24E-09 Convergence criterion met
 Total energy in the final basis set = -1510.28389373
   13   -1510.2853355225      6.35E-09 Convergence criterion met
 Total energy in the final basis set = -1510.28533552
   13   -1510.2869725744      5.21E-09 Convergence criterion met
 Total energy in the final basis set = -1510.28697257
   13   -1510.2882844175      5.93E-09 Convergence criterion met
   12   -1510.2998152397      8.41E-09 Convergence criterion met
 Total energy in the final basis set = -1510.29981524
   12   -1510.2998579880      4.53E-09 Convergence criterion met
 Total energy in the final basis set = -1510.29985799
   12   -1510.2998652952      3.51E-09 Convergence criterion met
 Total energy in the final basis set = -1510.29986530
   11   -1510.2998798422      3.55E-09 Convergence criterion met
 Total energy in the final basis set = -1510.29987984
   11   -1510.2998808785      3.69E-09 Convergence criterion met
 Total energy in the final basis set = -1510.29988088
   11   -1510.2998832350      1.65E-09 Convergence criterion met
 Total energy in the final basis set = -1510.29988323

             Standard Nuclear Orientation (Angstroms)
    I     Atom           X                Y                Z
 ----------------------------------------------------------------
    1      O      -3.1468235802     2.1528305428     1.6970117767
    2      C      -3.0873841335     1.6917530108     0.5376154006
    3      C      -4.1069779992     0.7296654312    -0.1697586667
    4      C      -3.4185464027    -0.5410260243    -0.8257437042
    5      C      -1.8752881299    -0.6024915558    -0.5579580280
    6      O      -1.6686349776    -0.6290584200     0.8548282067
    7      C      -0.2239389764    -0.6016416997     1.1894373694
    8      C       0.5009420253    -1.9793113973     0.9391916479
    9      O       1.9605323019    -1.7100854448     0.9575922502
   10      C       2.4791736312    -1.7002332990    -0.3772692707
   11      C       3.9090604577    -1.0523779044    -0.3766685793
   12      C       3.8474324389     0.4895227135    -0.7865410255
   13      C       2.3881916421     0.9802283008    -1.0826185518
   14      O       1.5344259002     1.3331745762    -0.2302137074
   15      O      -2.0530008096     1.9798846844    -0.4091675486
   16      O       2.1687887723     0.9523528028    -2.4820935318
   17      O       1.8540654034    -2.1128908002    -1.3798885856
   18      C       0.7540618572     1.2841773428    -2.8012763531
   19      C       4.5501835885    -0.9449583221     1.0686879385
   20      C       6.0813578973    -0.5837697358     0.9116681403
   21      C       5.9993138147     0.9405730654     0.5286229670
   22      C       4.4371400117     1.1671391515     0.5211535119
   23      O       3.9518686948     0.2955268613     1.6143894720
   24      H       4.5466277492    -1.6148865973    -1.0819208906
   25      H       4.4672184055     0.6842667887    -1.6794543349
   26      H       4.3306574360    -1.8041576552     1.7305565713
   27      H       6.6111878381    -0.7329814915     1.8659547530
   28      H       6.5736576116    -1.1918821451     0.1360270481
   29      H       6.4760156588     1.5752519432     1.2923801261
   30      H       6.4557481186     1.1606558290    -0.4496207068
   31      H       4.1041633773     2.2103834893     0.6835641923
   32      O      -0.9615948577    -0.6638697445    -1.4127362821
   33      C      -1.0184057742     2.8679603685     0.1755266600
   34      C      -5.0989034793     0.0499828241     0.8607867807
   35      C      -6.3288493904    -0.5242831830     0.0559552381
   36      C      -5.6713715997    -1.7697342614    -0.6479946677
   37      C      -4.1988679587    -1.7063483637    -0.0762487922
   38      O      -4.3759335381    -1.1699550020     1.2915325350
   39      H      -4.6542382622     1.3122080203    -0.9341451314
   40      H      -3.5740936830    -0.5729386639    -1.9180693657
   41      H      -1.2030764084     2.9911412219     1.2607712034
   42      H      -5.3429104087     0.6843491428     1.7351731255
   43      H      -7.1318316891    -0.8290427924     0.7460473063
   44      H      -6.7378759789     0.2050104769    -0.6616155052
   45      H      -6.1598296695    -2.7097978386    -0.3464182171
   46      H      -5.6932034866    -1.6973288069    -1.7472038560
   47      H      -3.6626365219    -2.6747385561    -0.0472743588
   48      H      -1.0702505854     3.8570998446    -0.3212315973
   49      H      -0.0258794046     2.3986462113    -0.0078973685
   50      H       0.6704667032     1.1898926241    -3.8988862132
   51      H       0.5106057794     2.3230025139    -2.5012174593
   52      H       0.0551383252     0.5719254325    -2.2993720992
   53      H       0.2746903854    -2.7147613576     1.7365574158
   54      H       0.2224605267    -2.3858279809    -0.0569281136
   55      H      -0.1826506310    -0.3392419467     2.2645366976
   56      H       0.3187390857     0.1797354576     0.6038401959
 ----------------------------------------------------------------

    9   -1510.2998839315      6.32E-09 Convergence criterion met
 Total energy in the final basis set = -1510.29988393
 Final energy is   -1510.29988393149
 **  OPTIMIZATION CONVERGED  **

                    Orbital Energies (a.u.)
 --------------------------------------------------------------

 Alpha MOs
 -- Occupied --
-18.944 -18.932 -18.931 -18.924 -18.888 -18.885 -18.884 -18.877
-18.875 -18.871 -10.110 -10.102 -10.099 -10.095 -10.061 -10.060
-10.060 -10.059 -10.055 -10.053 -10.047 -10.041 -10.040 -10.037
-10.036 -10.035 -10.022 -10.020 -10.019 -10.018  -1.019  -1.013
 -1.009  -1.000  -0.970  -0.967  -0.942  -0.937  -0.933  -0.930
 -0.765  -0.761  -0.727  -0.722  -0.711  -0.704  -0.688  -0.659
 -0.649  -0.612  -0.596  -0.578  -0.548  -0.544  -0.538  -0.535
 -0.514  -0.507  -0.481  -0.477  -0.463  -0.460  -0.452  -0.441
 -0.433  -0.432  -0.427  -0.418  -0.412  -0.406  -0.401  -0.397
 -0.380  -0.379  -0.370  -0.367  -0.363  -0.359  -0.352  -0.349
 -0.344  -0.337  -0.332  -0.329  -0.327  -0.323  -0.318  -0.311
 -0.308  -0.306  -0.303  -0.301  -0.292  -0.286  -0.283  -0.280
 -0.272  -0.259  -0.245  -0.241  -0.237  -0.234  -0.232  -0.191
 -0.177  -0.170  -0.161  -0.160  -0.156  -0.153  -0.148  -0.144
 -0.141

          Ground-State Mulliken Net Atomic Charges

     Atom                 Charge (a.u.)
  ----------------------------------------
      1 O                    -0.212199
      2 C                     0.214549
      3 C                    -0.077808
      4 C                    -0.078296
      5 C                     0.220612
      6 O                    -0.167399
      7 C                    -0.061695
      8 C                    -0.058326
      9 O                    -0.169317
     10 C                     0.205095
     11 C                    -0.077313
     12 C                    -0.078176
     13 C                     0.218307
     14 O                    -0.221757
     15 O                    -0.178829
     16 O                    -0.160869
     17 O                    -0.207743
     18 C                    -0.143776
     19 C                     0.026195
     20 C                    -0.144379
     21 C                    -0.143841
     22 C                     0.025455
     23 O                    -0.184619
     24 H                     0.086231
     25 H                     0.087870
     26 H                     0.089352
     27 H                     0.078349
     28 H                     0.073461
     29 H                     0.078457
     30 H                     0.073605
     31 H                     0.084822
     32 O                    -0.220598
     33 C                    -0.151820
     34 C                     0.024491
     35 C                    -0.143722
     36 C                    -0.144135
     37 C                     0.025923
     38 O                    -0.185257
     39 H                     0.083816
     40 H                     0.084601
     41 H                     0.095280
     42 H                     0.090612
     43 H                     0.077915
     44 H                     0.072724
     45 H                     0.077732
     46 H                     0.073323
     47 H                     0.082077
     48 H                     0.075216
     49 H                     0.109329
     50 H                     0.087641
     51 H                     0.081594
     52 H                     0.119909
     53 H                     0.085519
     54 H                     0.102159
     55 H                     0.090642
     56 H                     0.109011
  ----------------------------------------
  Sum of atomic charges =    -0.000000

                    Cartesian Multipole Moments
 -----------------------------------------------------------------
    Charge (ESU x 10^10)
                 0.0000
    Dipole Moment (Debye)
         X       0.9827      Y       0.1654      Z      -1.9529
       Tot       2.1924
    Quadrupole Moments (Debye-Ang)
        XX    -135.8647     XY       2.2022     YY    -155.9484
        XZ       7.3683     YZ      -5.8149     ZZ    -167.9560

 Total job time:  145.57s(wall), 6942.51s(cpu)
        *  Thank you very much for using Q-Chem.  Have a nice day.  *
