 Q-Chem 5.0, Q-Chem, Inc., Pleasanton, CA (2017)
 Q-Chem 5.0.1 for Intel X86 EM64T Linux

User input:
--------------------------------------------------------------
$molecule
0  1
O -3.94934 -3.66094 2.70899
C -3.26408 -4.56952 2.26188
C -3.36658 -6.02376 2.66595
C -2.04986 -6.79228 2.86466
C -0.77767 -5.97575 2.81083
O -1.07586 -4.66884 2.54913
C 0.08259 -3.86647 2.29724
C 1.14383 -4.12687 3.36124
O 2.31889 -3.35 3.08089
C 3.09516 -3.05882 4.15409
C 4.50048 -2.65864 3.7725
C 5.01086 -3.26315 2.45631
C 3.95463 -3.86879 1.55394
O 3.22911 -3.24425 0.79359
O -2.81468 -4.39899 0.97799
O 3.98555 -5.2245 1.45312
O 2.82205 -3.40122 5.2984
C 3.22561 -5.96042 0.56852
C 4.63846 -1.15529 3.4458
C 6.08769 -0.72092 3.66285
C 6.7709 -1.4325 2.51083
C 5.54788 -1.99328 1.77362
O 4.52456 -1.06683 2.04686
H 5.16072 -2.87431 4.64404
H 5.78677 -4.03836 2.64465
H 3.94911 -0.51163 4.03493
H 6.12133 0.37627 3.47348
H 6.51607 -0.9275 4.66718
H 7.30374 -0.67356 1.89633
H 7.46694 -2.24876 2.80258
H 5.77874 -2.16365 0.69862
O 0.23269 -6.53631 2.4014
C -2.85404 -3.20794 0.28112
C -3.98202 -6.1832 4.07368
C -4.54932 -7.5931 4.24573
C -3.27369 -8.39487 4.38188
C -2.23366 -7.27417 4.31333
O -2.87126 -6.18585 4.93461
H -4.03169 -6.51389 1.91978
H -1.94456 -7.64723 2.15848
H -2.26738 -2.43147 0.81611
H -4.77353 -5.43589 4.29943
H -5.09129 -7.62648 5.21793
H -5.23208 -7.91776 3.43122
H -3.2561 -8.85908 5.3933
H -3.11504 -9.17439 3.6056
H -1.27809 -7.6086 4.77562
H -3.90452 -2.86723 0.16194
H -2.4119 -3.36063 -0.72458
H 3.4439 -7.03856 0.71068
H 3.47581 -5.67847 -0.47633
H 2.14659 -5.78797 0.75097
H 0.66259 -3.78914 4.30829
H 1.50735 -5.15204 3.54547
H -0.20313 -2.79376 2.27354
H 0.49889 -4.13159 1.30167
$end

$opt
CONSTRAINT
tors           1           2           3           4    -138.072
tors           3           4           5           6      -1.675
tors           4           5           6           7    -171.768
tors           5           6           7           8     -47.368
tors           6           7           8           9    +178.257
tors           7           8           9          10    +154.668
tors           8           9          10          11    +161.053
tors           9          10          11          12     -28.094
tors          11          12          13          14     +80.733
ENDCONSTRAINT
$end

$rem
JOBTYPE                   OPT
METHOD                    B3LYP
DFT_D                     d3_op
BASIS                     STO-3G
GEOM_OPT_MAX_CYCLES       100
GEOM_OPT_TOL_GRADIENT     300
GEOM_OPT_TOL_DISPLACEMENT 1200
GEOM_OPT_TOL_ENERGY       100
SYMMETRY                  False
THRESH                    12
SCF_CONVERGENCE           8
MAX_SUB_FILE_NUM          128
MEM_STATIC                400
MEM_TOTAL                 4000
$end
--------------------------------------------------------------

   15   -1510.1091717416      7.14E-09 Convergence criterion met
 Total energy in the final basis set = -1510.10917174
   14   -1510.1828821292      8.06E-09 Convergence criterion met
 Total energy in the final basis set = -1510.18288213
   14   -1510.2227228034      6.34E-09 Convergence criterion met
 Total energy in the final basis set = -1510.22272280
   14   -1510.2457016662      8.93E-09 Convergence criterion met
 Total energy in the final basis set = -1510.24570167
   14   -1510.2570347242      5.92E-09 Convergence criterion met
 Total energy in the final basis set = -1510.25703472
   14   -1510.2631254052      3.67E-09 Convergence criterion met
 Total energy in the final basis set = -1510.26312541
   13   -1510.2666621800      9.51E-09 Convergence criterion met
 Total energy in the final basis set = -1510.26666218
   13   -1510.2687456398      4.19E-09 Convergence criterion met
   11   -1510.2716770463      3.75E-09 Convergence criterion met
 Total energy in the final basis set = -1510.27167705
   10   -1510.2716828968      6.73E-09 Convergence criterion met
 Total energy in the final basis set = -1510.27168290
    9   -1510.2716840310      5.89E-09 Convergence criterion met
 Total energy in the final basis set = -1510.27168403
    9   -1510.2716820075      5.12E-09 Convergence criterion met
 Total energy in the final basis set = -1510.27168201
    9   -1510.2716832361      3.60E-09 Convergence criterion met
 Total energy in the final basis set = -1510.27168324
    9   -1510.2716843481      1.68E-09 Convergence criterion met
 Total energy in the final basis set = -1510.27168435

             Standard Nuclear Orientation (Angstroms)
    I     Atom           X                Y                Z
 ----------------------------------------------------------------
    1      O      -3.8710442689     2.4277097772     1.2558340072
    2      C      -3.8515918423     1.7724611029     0.1928873301
    3      C      -4.6383579949     0.4503230239    -0.1220813837
    4      C      -3.8507071963    -0.6753577570    -0.8992380005
    5      C      -2.2852759905    -0.6888522827    -0.7084792764
    6      O      -1.8817389606     0.3887143084     0.1344237118
    7      C      -0.4126028295     0.5867822021     0.2271463222
    8      C       0.4340423260    -0.7110469711     0.4868882476
    9      O       1.8437824304    -0.2634695974     0.4942415961
   10      C       2.6824566361    -1.1294951347     1.2560535766
   11      C       4.1817526196    -0.9121981761     0.8516393212
   12      C       4.4840229748    -0.4125113769    -0.6271108697
   13      C       3.2803507018     0.2399452046    -1.4050792142
   14      O       2.8458985255     1.4086487189    -1.3153029359
   15      O      -3.3066598642     2.2598904574    -1.0462670557
   16      O       2.7247655547    -0.7677308836    -2.2689627484
   17      O       2.2638656650    -1.9573480449     2.0952289794
   18      C       1.5315311215    -0.2435919268    -2.9733771585
   19      C       4.9524831371     0.1887299134     1.7151588526
   20      C       6.4763587868    -0.2197981417     1.7323937917
   21      C       6.8768220793     0.0859493312     0.2410245449
   22      C       5.5435220099     0.7294106775    -0.3144423649
   23      O       4.9422769051     1.3973061326     0.8648963820
   24      H       4.6648018221    -1.8934526481     1.0101286416
   25      H       4.8958112382    -1.2315571217    -1.2426015040
   26      H       4.5031620309     0.4005322217     2.7047848386
   27      H       7.0339498927     0.4181436062     2.4368547618
   28      H       6.6276399859    -1.2744838363     2.0123865058
   29      H       7.7091985730     0.8047668448     0.1820894681
   30      H       7.1547999672    -0.8221379941    -0.3176859567
   31      H       5.6787493331     1.4576445635    -1.1372084399
   32      O      -1.5175963381    -1.4959681990    -1.2818202450
   33      C      -2.6039231453     3.5401183606    -0.8153571451
   34      C      -5.1796648987    -0.3470763464     1.1393285806
   35      C      -6.5107902348    -1.0641481156     0.6906389824
   36      C      -5.9354408301    -2.1353990758    -0.3096192093
   37      C      -4.3789977331    -1.9529007358    -0.1067264216
   38      O      -4.2422418621    -1.4859803989     1.2955334905
   39      H      -5.4950537169     0.7632757558    -0.7487160960
   40      H      -4.0774651045    -0.6986913382    -1.9798987930
   41      H      -1.7051992141     3.4018547002    -0.1797223916
   42      H      -5.2324475049     0.2513703578     2.0698168171
   43      H      -6.9982447917    -1.5433442424     1.5550735464
   44      H      -7.2266102437    -0.3743775365     0.2157049802
   45      H      -6.2440716692    -3.1569456268    -0.0368527028
   46      H      -6.2368304174    -1.9449411714    -1.3525358732
   47      H      -3.7731796648    -2.8648326378    -0.2754251362
   48      H      -3.2628698924     4.2895909832    -0.3313211585
   49      H      -2.2940799018     3.9056068669    -1.8117984727
   50      H       1.6599036847    -0.4058109964    -4.0611184671
   51      H       1.4252906501     0.8390049768    -2.7569473972
   52      H       0.6284411274    -0.7869575449    -2.6264450047
   53      H       0.1649562554    -1.1840811748     1.4553046080
   54      H       0.2505948173    -1.4321016954    -0.3369476704
   55      H      -0.2727691917     1.3050062894     1.0600891128
   56      H      -0.0461976331     1.0612177157    -0.7101665036
 ----------------------------------------------------------------

    8   -1510.2716851428      9.23E-09 Convergence criterion met
 Total energy in the final basis set = -1510.27168514
 Final energy is   -1510.27168514278
 **  OPTIMIZATION CONVERGED  **

                    Orbital Energies (a.u.)
 --------------------------------------------------------------

 Alpha MOs
 -- Occupied --
-18.952 -18.937 -18.923 -18.922 -18.888 -18.887 -18.885 -18.879
-18.867 -18.865 -10.114 -10.104 -10.098 -10.094 -10.081 -10.068
-10.062 -10.061 -10.059 -10.058 -10.058 -10.051 -10.043 -10.039
-10.036 -10.036 -10.022 -10.021 -10.020 -10.019  -1.024  -1.016
 -1.002  -1.000  -0.971  -0.970  -0.950  -0.941  -0.930  -0.926
 -0.766  -0.762  -0.731  -0.723  -0.710  -0.705  -0.699  -0.658
 -0.656  -0.618  -0.598  -0.589  -0.546  -0.545  -0.539  -0.537
 -0.516  -0.510  -0.491  -0.474  -0.460  -0.459  -0.458  -0.443
 -0.439  -0.432  -0.429  -0.410  -0.408  -0.407  -0.404  -0.400
 -0.392  -0.387  -0.375  -0.368  -0.364  -0.359  -0.354  -0.347
 -0.343  -0.342  -0.335  -0.333  -0.331  -0.327  -0.323  -0.312
 -0.311  -0.311  -0.306  -0.304  -0.301  -0.296  -0.289  -0.273
 -0.271  -0.250  -0.246  -0.243  -0.238  -0.235  -0.234  -0.192
 -0.179  -0.168  -0.166  -0.158  -0.157  -0.148  -0.147  -0.146
 -0.143

          Ground-State Mulliken Net Atomic Charges

     Atom                 Charge (a.u.)
  ----------------------------------------
      1 O                    -0.219329
      2 C                     0.220799
      3 C                    -0.080534
      4 C                    -0.074928
      5 C                     0.220233
      6 O                    -0.162882
      7 C                    -0.045899
      8 C                    -0.059848
      9 O                    -0.172845
     10 C                     0.211669
     11 C                    -0.079784
     12 C                    -0.078497
     13 C                     0.218603
     14 O                    -0.216527
     15 O                    -0.177489
     16 O                    -0.175894
     17 O                    -0.210193
     18 C                    -0.139528
     19 C                     0.025941
     20 C                    -0.142166
     21 C                    -0.145568
     22 C                     0.026062
     23 O                    -0.184717
     24 H                     0.086258
     25 H                     0.085406
     26 H                     0.084513
     27 H                     0.078366
     28 H                     0.074495
     29 H                     0.078150
     30 H                     0.073597
     31 H                     0.084656
     32 O                    -0.217921
     33 C                    -0.128983
     34 C                     0.023097
     35 C                    -0.141634
     36 C                    -0.145452
     37 C                     0.023639
     38 O                    -0.192524
     39 H                     0.083329
     40 H                     0.089268
     41 H                     0.085464
     42 H                     0.091408
     43 H                     0.078476
     44 H                     0.073545
     45 H                     0.078933
     46 H                     0.073741
     47 H                     0.084841
     48 H                     0.088823
     49 H                     0.087817
     50 H                     0.083115
     51 H                     0.096309
     52 H                     0.087617
     53 H                     0.096653
     54 H                     0.107512
     55 H                     0.097815
     56 H                     0.092988
  ----------------------------------------
  Sum of atomic charges =    -0.000000

                    Cartesian Multipole Moments
 -----------------------------------------------------------------
    Charge (ESU x 10^10)
                 0.0000
    Dipole Moment (Debye)
         X      -0.3173      Y      -0.5372      Z      -2.2231
       Tot       2.3089
    Quadrupole Moments (Debye-Ang)
        XX    -135.2240     XY      -2.2737     YY    -165.2910
        XZ       6.4090     YZ      -0.9067     ZZ    -162.1642

 Total job time:  106.90s(wall), 5094.68s(cpu)
        *  Thank you very much for using Q-Chem.  Have a nice day.  *
