 Q-Chem 5.0, Q-Chem, Inc., Pleasanton, CA (2017)
 Q-Chem 5.0.1 for Intel X86 EM64T Linux

User input:
--------------------------------------------------------------
$molecule
0  1
O -3.94934 -3.66094 2.70899
C -3.26408 -4.56952 2.26188
C -3.36658 -6.02376 2.66595
C -2.4411 -6.50623 3.79491
C -1.64333 -5.44137 4.51446
O -0.47294 -5.97183 4.97731
C -0.18521 -5.60575 6.33099
C -1.47148 -5.56637 7.14959
O -1.17241 -5.23845 8.51557
C -0.21613 -4.29326 8.69241
C -0.25629 -3.6653 10.06526
C 0.64968 -2.43807 10.24249
C 1.17284 -1.81293 8.96492
O 0.55127 -1.04411 8.24579
O -2.21216 -4.25944 1.46001
O 2.49076 -2.02069 8.70486
O 0.93139 -4.48894 8.31142
C 3.16072 -1.49827 7.61848
C -1.62255 -3.05516 10.44924
C -1.74509 -3.0027 11.97139
C -0.74064 -1.9152 12.29943
C -0.3535 -1.46428 10.88558
O -1.51445 -1.69134 10.12255
H -0.00605 -4.47291 10.79163
H 1.52504 -2.66922 10.88995
H -2.49205 -3.59355 10.01387
H -2.76705 -2.62141 12.19717
H -1.59145 -3.96617 12.50329
H -1.26858 -1.10433 12.84854
H 0.15104 -2.24924 12.87306
H 0.02775 -0.41913 10.89692
O -1.97885 -4.27263 4.66736
C -1.90389 -2.98192 1.04196
C -4.75161 -6.32025 3.283
C -5.07726 -7.80448 3.14702
C -4.1147 -8.38673 4.1526
C -3.51198 -7.10116 4.73546
O -4.558 -6.16934 4.66405
H -3.28426 -6.62042 1.72961
H -1.74492 -7.30904 3.46074
H -1.69176 -2.33298 1.91849
H -5.57364 -5.71765 2.83686
H -6.11593 -7.9491 3.52242
H -4.99778 -8.21663 2.11808
H -4.70477 -8.92808 4.92581
H -3.33514 -9.05898 3.73327
H -3.14192 -7.33725 5.7399
H -2.74662 -2.55787 0.4551
H -1.00174 -3.01782 0.39755
H 4.2193 -1.82812 7.65089
H 3.13077 -0.38804 7.64694
H 2.7008 -1.8631 6.67508
H -2.26318 -4.86066 6.83903
H -1.88926 -6.58329 7.1863
H 0.24656 -4.58793 6.2193
H 0.55541 -6.32571 6.74255
$end

$opt
CONSTRAINT
tors           1           2           3           4     -92.969
tors           3           4           5           6    -150.826
tors           4           5           6           7    -134.142
tors           5           6           7           8     +37.314
tors           6           7           8           9    +178.257
tors           7           8           9          10     +39.685
tors           8           9          10          11    +161.053
tors           9          10          11          12    -170.540
tors          11          12          13          14     +80.733
ENDCONSTRAINT
$end

$rem
JOBTYPE                   OPT
METHOD                    B3LYP
DFT_D                     d3_op
BASIS                     STO-3G
GEOM_OPT_MAX_CYCLES       100
GEOM_OPT_TOL_GRADIENT     300
GEOM_OPT_TOL_DISPLACEMENT 1200
GEOM_OPT_TOL_ENERGY       100
SYMMETRY                  False
THRESH                    12
SCF_CONVERGENCE           8
MAX_SUB_FILE_NUM          128
MEM_STATIC                400
MEM_TOTAL                 4000
$end
--------------------------------------------------------------

   16   -1510.0907501840      3.15E-09 Convergence criterion met
 Total energy in the final basis set = -1510.09075018
   14   -1510.1683547456      7.58E-09 Convergence criterion met
 Total energy in the final basis set = -1510.16835475
   15   -1510.2111492323      1.61E-09 Convergence criterion met
 Total energy in the final basis set = -1510.21114923
   15   -1510.2358333622      1.66E-09 Convergence criterion met
 Total energy in the final basis set = -1510.23583336
   14   -1510.2481362256      6.15E-09 Convergence criterion met
 Total energy in the final basis set = -1510.24813623
   14   -1510.2550073186      5.00E-09 Convergence criterion met
 Total energy in the final basis set = -1510.25500732
   13   -1510.2593514430      3.53E-09 Convergence criterion met
 Total energy in the final basis set = -1510.25935144
   13   -1510.2619354748      2.82E-09 Convergence criterion met
   12   -1510.2642494437      2.74E-09 Convergence criterion met
 Total energy in the final basis set = -1510.26424944
   11   -1510.2642835905      6.47E-09 Convergence criterion met
 Total energy in the final basis set = -1510.26428359
   10   -1510.2643012661      5.44E-09 Convergence criterion met
 Total energy in the final basis set = -1510.26430127
    9   -1510.2643174932      8.71E-09 Convergence criterion met
 Total energy in the final basis set = -1510.26431749
    9   -1510.2643235315      4.49E-09 Convergence criterion met
 Total energy in the final basis set = -1510.26432353
    9   -1510.2643283148      5.90E-09 Convergence criterion met
 Total energy in the final basis set = -1510.26432831

             Standard Nuclear Orientation (Angstroms)
    I     Atom           X                Y                Z
 ----------------------------------------------------------------
    1      O      -3.9837155488     0.7115914525     2.4189691471
    2      C      -4.4018143738     1.0590457659     1.2947275930
    3      C      -4.9255422068     0.1293492687     0.1382036569
    4      C      -3.8019791138    -0.2836490360    -0.9034011555
    5      C      -2.4410858620     0.4696258193    -0.7220078575
    6      O      -1.7835441104     0.5725781473    -2.0015636211
    7      C      -0.3393960487     0.2204259209    -1.9497569460
    8      C       0.0068872028    -0.9715446679    -0.9737763496
    9      O       1.4285902667    -1.4038969387    -0.9020031398
   10      C       2.4109286551    -0.3680935339    -0.9269276446
   11      C       3.7405920228    -0.9817321710    -0.3594833717
   12      C       4.8746974966     0.0925287330    -0.0937347146
   13      C       4.4122808570     1.5852571642    -0.2842851565
   14      O       3.7836174007     2.2989487253     0.5253969780
   15      O      -4.4701708419     2.4154227904     0.8369210520
   16      O       4.8928104695     2.0331940077    -1.5602933039
   17      O       2.2528974911     0.8135248162    -1.3089153498
   18      C       4.4000228025     3.4032688573    -1.8248561926
   19      C       3.5619077318    -1.6138762610     1.0884022409
   20      C       4.7759790533    -2.5909878995     1.3409091339
   21      C       5.9452251306    -1.5625537057     1.5710940613
   22      C       5.1761840139    -0.1882616954     1.4408596365
   23      O       3.8348036706    -0.4809007590     1.9983213057
   24      H       4.0882927497    -1.7519649695    -1.0729983682
   25      H       5.7531078039    -0.0864799743    -0.7378677710
   26      H       2.5567875131    -2.0395177637     1.2741614455
   27      H       4.5945699066    -3.2041548375     2.2381815487
   28      H       4.9567449598    -3.2612131144     0.4853734991
   29      H       6.3821514278    -1.6654058084     2.5769981429
   30      H       6.7505204531    -1.6580039398     0.8252093190
   31      H       5.6351893591     0.6647998606     1.9767622487
   32      O      -1.9515998677     0.8771798943     0.3548790488
   33      C      -3.8703888325     3.3143111100     1.8491369505
   34      C      -5.3035031837    -1.2902061564     0.7355582073
   35      C      -6.0895299825    -2.1203369095    -0.3542412296
   36      C      -4.9207122979    -2.5463788394    -1.3180362706
   37      C      -3.6863968815    -1.8490794360    -0.6204913141
   38      O      -3.9887950728    -1.9723769753     0.8195403696
   39      H      -5.7740944351     0.6221251772    -0.3685484186
   40      H      -4.1409206618    -0.1103726996    -1.9401263626
   41      H      -2.8019509331     3.0686798182     2.0190512872
   42      H      -5.7748187364    -1.2502030762     1.7363896643
   43      H      -6.5769075739    -2.9963309682     0.1025430225
   44      H      -6.8572032704    -1.5135168232    -0.8604460985
   45      H      -4.7847514965    -3.6396810944    -1.3301771746
   46      H      -5.0681269585    -2.1956570682    -2.3519559461
   47      H      -2.7008603398    -2.2952825260    -0.8536366992
   48      H      -4.4051270202     3.2542608887     2.8190152367
   49      H      -3.9565249373     4.3379271543     1.4405780099
   50      H       4.8075988025     3.6923593458    -2.8110708231
   51      H       4.7477204673     4.1214298215    -1.0541166237
   52      H       3.2915209860     3.4306668166    -1.8578153611
   53      H      -0.3154835005    -0.6831537051     0.0512782850
   54      H      -0.5488479275    -1.8844755902    -1.2716320400
   55      H       0.2892570604     1.0893989028    -1.6568274099
   56      H      -0.0802899419    -0.0534512023    -2.9929585476
 ----------------------------------------------------------------

    9   -1510.2643289127      3.33E-09 Convergence criterion met
 Total energy in the final basis set = -1510.26432891
 Final energy is   -1510.26432891268
 **  OPTIMIZATION CONVERGED  **

                    Orbital Energies (a.u.)
 --------------------------------------------------------------

 Alpha MOs
 -- Occupied --
-18.946 -18.924 -18.923 -18.920 -18.895 -18.892 -18.891 -18.887
-18.865 -18.858 -10.115 -10.108 -10.090 -10.088 -10.080 -10.069
-10.066 -10.059 -10.059 -10.057 -10.054 -10.053 -10.040 -10.040
-10.035 -10.032 -10.024 -10.022 -10.020 -10.018  -1.022  -1.012
 -0.999  -0.996  -0.973  -0.969  -0.952  -0.941  -0.925  -0.922
 -0.764  -0.762  -0.728  -0.723  -0.714  -0.707  -0.697  -0.655
 -0.654  -0.625  -0.597  -0.585  -0.549  -0.545  -0.540  -0.536
 -0.516  -0.509  -0.481  -0.467  -0.461  -0.453  -0.452  -0.448
 -0.444  -0.432  -0.430  -0.409  -0.407  -0.404  -0.402  -0.394
 -0.390  -0.385  -0.375  -0.365  -0.363  -0.356  -0.352  -0.348
 -0.345  -0.341  -0.335  -0.332  -0.330  -0.329  -0.326  -0.317
 -0.312  -0.309  -0.306  -0.303  -0.301  -0.279  -0.278  -0.275
 -0.273  -0.264  -0.246  -0.244  -0.239  -0.236  -0.233  -0.191
 -0.177  -0.168  -0.164  -0.157  -0.155  -0.147  -0.143  -0.142
 -0.138

          Ground-State Mulliken Net Atomic Charges

     Atom                 Charge (a.u.)
  ----------------------------------------
      1 O                    -0.208483
      2 C                     0.212333
      3 C                    -0.080354
      4 C                    -0.080252
      5 C                     0.213183
      6 O                    -0.181382
      7 C                    -0.060367
      8 C                    -0.057112
      9 O                    -0.171079
     10 C                     0.219744
     11 C                    -0.077672
     12 C                    -0.081497
     13 C                     0.213566
     14 O                    -0.215349
     15 O                    -0.174726
     16 O                    -0.173882
     17 O                    -0.202887
     18 C                    -0.128386
     19 C                     0.025032
     20 C                    -0.143242
     21 C                    -0.144740
     22 C                     0.026098
     23 O                    -0.186336
     24 H                     0.085732
     25 H                     0.084371
     26 H                     0.088309
     27 H                     0.078604
     28 H                     0.072920
     29 H                     0.078205
     30 H                     0.073192
     31 H                     0.085626
     32 O                    -0.195841
     33 C                    -0.129063
     34 C                     0.026095
     35 C                    -0.144759
     36 C                    -0.142593
     37 C                     0.025523
     38 O                    -0.185200
     39 H                     0.084926
     40 H                     0.087233
     41 H                     0.094783
     42 H                     0.088104
     43 H                     0.078661
     44 H                     0.074263
     45 H                     0.078325
     46 H                     0.074528
     47 H                     0.077710
     48 H                     0.087014
     49 H                     0.087742
     50 H                     0.086081
     51 H                     0.086348
     52 H                     0.091769
     53 H                     0.097775
     54 H                     0.085214
     55 H                     0.108904
     56 H                     0.087283
  ----------------------------------------
  Sum of atomic charges =     0.000000

                    Cartesian Multipole Moments
 -----------------------------------------------------------------
    Charge (ESU x 10^10)
                 0.0000
    Dipole Moment (Debye)
         X      -0.1257      Y      -1.9279      Z      -3.1973
       Tot       3.7356
    Quadrupole Moments (Debye-Ang)
        XX    -136.4393     XY      -3.7156     YY    -153.6871
        XZ       3.5700     YZ       2.3786     ZZ    -165.2535

 Total job time:  59.01s(wall), 2806.17s(cpu)
        *  Thank you very much for using Q-Chem.  Have a nice day.  *
