 Q-Chem 5.0, Q-Chem, Inc., Pleasanton, CA (2017)
 Q-Chem 5.0.1 for Intel X86 EM64T Linux

User input:
--------------------------------------------------------------
$molecule
0  1
O -3.9837155488 0.7115914525 2.4189691471
C -4.4018143738 1.0590457659 1.294727593
C -4.9255422068 0.1293492687 0.1382036569
C -3.8019791138 -0.283649036 -0.9034011555
C -2.441085862 0.4696258193 -0.7220078575
O -1.7835441104 0.5725781473 -2.0015636211
C -0.3393960487 0.2204259209 -1.949756946
C 0.0068872028 -0.9715446679 -0.9737763496
O 1.4285902667 -1.4038969387 -0.9020031398
C 2.4109286551 -0.3680935339 -0.9269276446
C 3.7405920228 -0.981732171 -0.3594833717
C 4.8746974966 0.092528733 -0.0937347146
C 4.412280857 1.5852571642 -0.2842851565
O 3.7836174007 2.2989487253 0.525396978
O -4.4701708419 2.4154227904 0.836921052
O 4.8928104695 2.0331940077 -1.5602933039
O 2.2528974911 0.8135248162 -1.3089153498
C 4.4000228025 3.4032688573 -1.8248561926
C 3.5619077318 -1.613876261 1.0884022409
C 4.7759790533 -2.5909878995 1.3409091339
C 5.9452251306 -1.5625537057 1.5710940613
C 5.1761840139 -0.1882616954 1.4408596365
O 3.8348036706 -0.480900759 1.9983213057
H 4.0882927497 -1.7519649695 -1.0729983682
H 5.7531078039 -0.0864799743 -0.737867771
H 2.5567875131 -2.0395177637 1.2741614455
H 4.5945699066 -3.2041548375 2.2381815487
H 4.9567449598 -3.2612131144 0.4853734991
H 6.3821514278 -1.6654058084 2.5769981429
H 6.7505204531 -1.6580039398 0.825209319
H 5.6351893591 0.6647998606 1.9767622487
O -1.9515998677 0.8771798943 0.3548790488
C -3.8703888325 3.31431111 1.8491369505
C -5.3035031837 -1.2902061564 0.7355582073
C -6.0895299825 -2.1203369095 -0.3542412296
C -4.9207122979 -2.5463788394 -1.3180362706
C -3.6863968815 -1.849079436 -0.6204913141
O -3.9887950728 -1.9723769753 0.8195403696
H -5.7740944351 0.6221251772 -0.3685484186
H -4.1409206618 -0.1103726996 -1.9401263626
H -2.8019509331 3.0686798182 2.0190512872
H -5.7748187364 -1.2502030762 1.7363896643
H -6.5769075739 -2.9963309682 0.1025430225
H -6.8572032704 -1.5135168232 -0.8604460985
H -4.7847514965 -3.6396810944 -1.3301771746
H -5.0681269585 -2.1956570682 -2.3519559461
H -2.7008603398 -2.295282526 -0.8536366992
H -4.4051270202 3.2542608887 2.8190152367
H -3.9565249373 4.3379271543 1.4405780099
H 4.8075988025 3.6923593458 -2.8110708231
H 4.7477204673 4.1214298215 -1.0541166237
H 3.291520986 3.4306668166 -1.8578153611
H -0.3154835005 -0.6831537051 0.051278285
H -0.5488479275 -1.8844755902 -1.27163204
H 0.2892570604 1.0893989028 -1.6568274099
H -0.0802899419 -0.0534512023 -2.9929585476
$end

$rem
JOBTYPE                   OPT
METHOD                    B3LYP
DFT_D                     d3_op
BASIS                     STO-3G
GEOM_OPT_MAX_CYCLES       100
GEOM_OPT_TOL_GRADIENT     300
GEOM_OPT_TOL_DISPLACEMENT 1200
GEOM_OPT_TOL_ENERGY       100
SYMMETRY                  False
THRESH                    12
SCF_CONVERGENCE           8
MAX_SUB_FILE_NUM          128
MEM_STATIC                400
MEM_TOTAL                 4000
$end
--------------------------------------------------------------

   16   -1510.2642292412      4.68E-09 Convergence criterion met
 Total energy in the final basis set = -1510.26422924
   14   -1510.2699999113      1.83E-09 Convergence criterion met
 Total energy in the final basis set = -1510.26999991
   14   -1510.2749157089      2.24E-09 Convergence criterion met
 Total energy in the final basis set = -1510.27491571
   14   -1510.2787911052      2.35E-09 Convergence criterion met
 Total energy in the final basis set = -1510.27879111
   14   -1510.2815397669      1.70E-09 Convergence criterion met
 Total energy in the final basis set = -1510.28153977
   14   -1510.2837418095      3.36E-09 Convergence criterion met
 Total energy in the final basis set = -1510.28374181
   14   -1510.2854663328      1.91E-09 Convergence criterion met
 Total energy in the final basis set = -1510.28546633
   14   -1510.2866630602      2.17E-09 Convergence criterion met
   12   -1510.2928200701      3.41E-09 Convergence criterion met
 Total energy in the final basis set = -1510.29282007
   11   -1510.2928350273      5.92E-09 Convergence criterion met
 Total energy in the final basis set = -1510.29283503
   11   -1510.2928334007      1.92E-09 Convergence criterion met
 Total energy in the final basis set = -1510.29283340
   10   -1510.2928310492      8.75E-09 Convergence criterion met
 Total energy in the final basis set = -1510.29283105
    9   -1510.2928302400      6.26E-09 Convergence criterion met
 Total energy in the final basis set = -1510.29283024
    9   -1510.2928329473      9.87E-09 Convergence criterion met
 Total energy in the final basis set = -1510.29283295

             Standard Nuclear Orientation (Angstroms)
    I     Atom           X                Y                Z
 ----------------------------------------------------------------
    1      O      -2.9537250440     1.3805258088     2.0221928719
    2      C      -3.2599272547     1.6445633010     0.8406500615
    3      C      -4.3072138127     0.8872012838    -0.0594563381
    4      C      -3.6922252092     0.0136422546    -1.2266592157
    5      C      -2.1287444115    -0.0388971038    -1.1965918626
    6      O      -1.6844902447    -0.7917850984    -2.3229563639
    7      C      -0.2054047144    -0.9317877725    -2.3330165854
    8      C       0.2940288583    -1.9902278023    -1.2820809433
    9      O       1.7750020227    -1.9760348124    -1.2714316071
   10      C       2.2489887708    -1.4470312323    -0.0185141202
   11      C       3.8093576732    -1.3697307034    -0.0856067951
   12      C       4.3748467460     0.0985341801     0.1227329018
   13      C       3.2677833844     1.1889972684     0.3454629329
   14      O       3.2242406351     2.0353137747     1.2642772484
   15      O      -2.8041681421     2.8007201308     0.1218265259
   16      O       2.3017172084     1.0785638457    -0.7053379893
   17      O       1.5060328765    -1.1639227558     0.9462896636
   18      C       1.1838195770     2.0313226825    -0.4884273676
   19      C       4.4772122697    -2.1148141007     1.1506615035
   20      C       6.0127835480    -2.3202965382     0.8388724075
   21      C       6.5661012628    -0.8628754473     1.0581988525
   22      C       5.2429589874    -0.0896799467     1.4339153727
   23      O       4.4688933438    -1.0851005721     2.2128850902
   24      H       4.1338527187    -1.7952333696    -1.0511288433
   25      H       4.9933483448     0.4031599155    -0.7418604343
   26      H       3.9367559685    -3.0215409167     1.4846901792
   27      H       6.4567451293    -3.0333519492     1.5515285652
   28      H       6.1828831036    -2.6912827023    -0.1845344830
   29      H       7.2835694836    -0.8254245580     1.8933139109
   30      H       7.0498669975    -0.4501790506     0.1583966856
   31      H       5.3714174462     0.8424977524     2.0178773604
   32      O      -1.3774426703     0.4670136221    -0.3295638179
   33      C      -1.8362123916     3.5505610132     0.9530072771
   34      C      -5.0789273729    -0.2216781433     0.7726491237
   35      C      -6.4116563107    -0.5798441733     0.0087443530
   36      C      -5.8468177946    -1.4021796306    -1.2092412802
   37      C      -4.3014553701    -1.4155157572    -0.8814381229
   38      O      -4.2494025103    -1.4383669245     0.5967577898
   39      H      -5.0020580619     1.6388517231    -0.4751980083
   40      H      -4.0126526449     0.3641658399    -2.2245302679
   41      H      -1.0333811650     2.8905757364     1.3375731077
   42      H      -5.1845492389     0.0162838135     1.8487827370
   43      H      -7.0646763654    -1.1994195307     0.6439756139
   44      H      -6.9691745721     0.3173522358    -0.3040432609
   45      H      -6.2440021605    -2.4295735960    -1.2248445439
   46      H      -6.0600368389    -0.9269885400    -2.1801579917
   47      H      -3.7339351464    -2.2642336866    -1.3106426363
   48      H      -2.3342054805     4.0372104864     1.8171670309
   49      H      -1.4006690278     4.3262120220     0.2965775065
   50      H       1.1131700351     2.6975455308    -1.3702541702
   51      H       1.3874004956     2.6309000857     0.4205066806
   52      H       0.2391115825     1.4510407015    -0.3738178925
   53      H      -0.0656296547    -1.7220608871    -0.2638024192
   54      H      -0.0499182593    -3.0078524611    -1.5582234718
   55      H       0.2910391005     0.0393975143    -2.1295386036
   56      H       0.0489030223    -1.2590648033    -3.3608163412
 ----------------------------------------------------------------

    9   -1510.2928330656      5.08E-09 Convergence criterion met
 Total energy in the final basis set = -1510.29283307
 Final energy is   -1510.29283306561
 **  OPTIMIZATION CONVERGED  **

                    Orbital Energies (a.u.)
 --------------------------------------------------------------

 Alpha MOs
 -- Occupied --
-18.951 -18.929 -18.927 -18.920 -18.898 -18.888 -18.885 -18.874
-18.874 -18.862 -10.117 -10.097 -10.097 -10.090 -10.078 -10.066
-10.064 -10.059 -10.057 -10.055 -10.053 -10.044 -10.039 -10.037
-10.036 -10.034 -10.022 -10.020 -10.019 -10.018  -1.028  -1.011
 -1.003  -0.998  -0.971  -0.968  -0.953  -0.934  -0.931  -0.924
 -0.765  -0.762  -0.729  -0.722  -0.713  -0.705  -0.696  -0.655
 -0.651  -0.620  -0.597  -0.581  -0.547  -0.543  -0.538  -0.535
 -0.513  -0.507  -0.484  -0.474  -0.462  -0.457  -0.456  -0.450
 -0.436  -0.431  -0.428  -0.412  -0.410  -0.408  -0.400  -0.398
 -0.392  -0.381  -0.377  -0.365  -0.362  -0.356  -0.354  -0.346
 -0.342  -0.338  -0.333  -0.331  -0.328  -0.326  -0.324  -0.316
 -0.310  -0.308  -0.303  -0.302  -0.292  -0.286  -0.277  -0.275
 -0.269  -0.262  -0.246  -0.244  -0.243  -0.235  -0.232  -0.197
 -0.174  -0.168  -0.165  -0.162  -0.159  -0.151  -0.146  -0.142
 -0.142

          Ground-State Mulliken Net Atomic Charges

     Atom                 Charge (a.u.)
  ----------------------------------------
      1 O                    -0.213440
      2 C                     0.215317
      3 C                    -0.081562
      4 C                    -0.077228
      5 C                     0.221498
      6 O                    -0.168806
      7 C                    -0.051171
      8 C                    -0.060333
      9 O                    -0.174085
     10 C                     0.213888
     11 C                    -0.078614
     12 C                    -0.078052
     13 C                     0.214942
     14 O                    -0.209883
     15 O                    -0.177380
     16 O                    -0.178431
     17 O                    -0.208491
     18 C                    -0.153503
     19 C                     0.025976
     20 C                    -0.143963
     21 C                    -0.144072
     22 C                     0.024410
     23 O                    -0.185494
     24 H                     0.086061
     25 H                     0.084349
     26 H                     0.083751
     27 H                     0.078195
     28 H                     0.073078
     29 H                     0.078440
     30 H                     0.072670
     31 H                     0.091552
     32 O                    -0.204200
     33 C                    -0.129354
     34 C                     0.024906
     35 C                    -0.143769
     36 C                    -0.143921
     37 C                     0.025101
     38 O                    -0.188602
     39 H                     0.083819
     40 H                     0.088068
     41 H                     0.096059
     42 H                     0.091080
     43 H                     0.078715
     44 H                     0.073573
     45 H                     0.078620
     46 H                     0.073632
     47 H                     0.084485
     48 H                     0.084395
     49 H                     0.085415
     50 H                     0.075575
     51 H                     0.097132
     52 H                     0.108448
     53 H                     0.108197
     54 H                     0.083836
     55 H                     0.097494
     56 H                     0.091678
  ----------------------------------------
  Sum of atomic charges =     0.000000

                    Cartesian Multipole Moments
 -----------------------------------------------------------------
    Charge (ESU x 10^10)
                 0.0000
    Dipole Moment (Debye)
         X      -0.4077      Y      -0.3429      Z      -4.5768
       Tot       4.6077
    Quadrupole Moments (Debye-Ang)
        XX    -135.0365     XY      -5.4536     YY    -154.3343
        XZ       0.4511     YZ       1.1053     ZZ    -167.7105

 Total job time:  142.18s(wall), 6777.37s(cpu)
        *  Thank you very much for using Q-Chem.  Have a nice day.  *
