 Q-Chem 5.0, Q-Chem, Inc., Pleasanton, CA (2017)
 Q-Chem 5.0.1 for Intel X86 EM64T Linux

User input:
--------------------------------------------------------------
$molecule
0  1
O -3.1761304666 1.8861505409 1.8480611917
C -3.4753157143 1.579539896 0.6750183225
C -4.6557368011 0.6539623171 0.2071961454
C -4.3416466122 -0.3681963775 -0.950992004
C -2.8385102706 -0.8387700768 -1.0398613218
O -2.0380145737 -0.1894270429 -0.0405776878
C -0.6393514727 0.023258348 -0.4836789758
C 0.1976151776 -1.3138638782 -0.5988061475
O 1.463952373 -1.1326142101 -1.348898734
C 2.3953295191 -0.3237781751 -0.6007306003
C 3.81602412 -0.9817526356 -0.643051505
C 4.9636906491 0.030718313 -0.2469167311
C 4.5173887809 1.5372390973 -0.2030869354
O 4.7331908405 2.3611613209 0.7101777709
O -2.9689714709 2.2650001556 -0.4879576296
O 3.9665729435 1.8746874507 -1.4858040627
O 2.0804832906 0.6712593337 0.0911162656
C 3.4844622513 3.2729775988 -1.4725361876
C 3.9107583774 -2.0073955094 0.5718542833
C 5.2528094109 -2.8326647427 0.4468997773
C 6.3117578649 -1.7806330196 0.9479425513
C 5.3916666456 -0.5202120406 1.1766360961
O 4.1452989815 -1.1093149351 1.7243604302
H 3.9796860422 -1.4684422718 -1.6203177955
H 5.8004145794 -0.0447871905 -0.965868116
H 2.9993129061 -2.6170919773 0.7286579078
H 5.2197300893 -3.7191493203 1.0998341059
H 5.4382361796 -3.1630799789 -0.5878061736
H 6.7760022364 -2.097414904 1.8954682373
H 7.105899332 -1.5897529385 0.2089407911
H 5.7849772308 0.2578850548 1.8596245296
O -2.3943411363 -1.6448662613 -1.8875961854
C -1.9770976911 3.281754016 -0.0764056344
C -5.2705871292 -0.2981938373 1.3185205684
C -6.8007781837 -0.4650712796 0.9795638054
C -6.7076767143 -1.297502632 -0.3545932381
C -5.1615770091 -1.6232842935 -0.4161604916
O -4.7313101031 -1.6442578035 1.0049969981
H -5.4396244186 1.3494741048 -0.1493906639
H -4.661782981 -0.0142982937 -1.9472590672
H -1.1341815561 2.8358416414 0.4892929211
H -5.0249701364 -0.00638375 2.3582861289
H -7.3071288968 -1.0381272236 1.7730075891
H -7.3181902503 0.4992082261 0.851327225
H -7.298378329 -2.2254381074 -0.3000765918
H -7.0378470911 -0.7228900422 -1.2350923686
H -4.8997879645 -2.5758311928 -0.9172138434
H -2.437231469 4.0721495767 0.551952991
H -1.5946637817 3.732581871 -1.0107432729
H 3.1504748426 3.4937541402 -2.5031113122
H 4.2856174231 3.9816943956 -1.179212739
H 2.6321439973 3.3944396879 -0.7726116497
H 0.3877854696 -1.7315068459 0.4130418233
H -0.401483179 -2.0325610209 -1.1958404938
H -0.1753831623 0.6890295892 0.2704201853
H -0.6257555573 0.5353112942 -1.4703381869
$end

$rem
JOBTYPE                   OPT
METHOD                    B3LYP
DFT_D                     d3_op
BASIS                     STO-3G
GEOM_OPT_MAX_CYCLES       100
GEOM_OPT_TOL_GRADIENT     300
GEOM_OPT_TOL_DISPLACEMENT 1200
GEOM_OPT_TOL_ENERGY       100
SYMMETRY                  False
THRESH                    12
SCF_CONVERGENCE           8
MAX_SUB_FILE_NUM          128
MEM_STATIC                400
MEM_TOTAL                 4000
$end
--------------------------------------------------------------

   16   -1510.2654529118      4.19E-09 Convergence criterion met
 Total energy in the final basis set = -1510.26545291
   14   -1510.2713583582      5.76E-09 Convergence criterion met
 Total energy in the final basis set = -1510.27135836
   13   -1510.2760428516      9.26E-09 Convergence criterion met
 Total energy in the final basis set = -1510.27604285
   13   -1510.2798556615      7.74E-09 Convergence criterion met
 Total energy in the final basis set = -1510.27985566
   14   -1510.2824897773      5.62E-09 Convergence criterion met
 Total energy in the final basis set = -1510.28248978
   13   -1510.2843300324      4.31E-09 Convergence criterion met
 Total energy in the final basis set = -1510.28433003
   13   -1510.2856393682      6.09E-09 Convergence criterion met
 Total energy in the final basis set = -1510.28563937
   12   -1510.2866416495      9.39E-09 Convergence criterion met
   10   -1510.2895459080      8.92E-09 Convergence criterion met
 Total energy in the final basis set = -1510.28954591
   11   -1510.2895500761      5.46E-09 Convergence criterion met
 Total energy in the final basis set = -1510.28955008
   11   -1510.2895524949      6.57E-09 Convergence criterion met
 Total energy in the final basis set = -1510.28955249
   12   -1510.2895613477      4.23E-09 Convergence criterion met
 Total energy in the final basis set = -1510.28956135
    9   -1510.2895590238      9.97E-09 Convergence criterion met
 Total energy in the final basis set = -1510.28955902
   10   -1510.2895618675      5.36E-09 Convergence criterion met
 Total energy in the final basis set = -1510.28956187

             Standard Nuclear Orientation (Angstroms)
    I     Atom           X                Y                Z
 ----------------------------------------------------------------
    1      O      -3.0709148151     2.6012882278     1.0285893723
    2      C      -3.4552433672     2.0926204724    -0.0442864055
    3      C      -4.6690088709     1.1224197904    -0.2722547162
    4      C      -4.2808930702    -0.2195829605    -1.0249364275
    5      C      -2.7579534106    -0.3283070949    -1.3650622222
    6      O      -2.0117485590    -0.0751406168    -0.1634564173
    7      C      -0.5579912362    -0.1335114577    -0.4350322181
    8      C      -0.0133712259    -1.6073273557    -0.3091861582
    9      O       1.3875995180    -1.6986625317    -0.7896208255
   10      C       2.2877069647    -1.1265252398     0.1666041240
   11      C       3.7366247385    -1.2152284355    -0.4127274267
   12      C       4.6325734906     0.0346689667    -0.0294786075
   13      C       3.8792250885     1.1174380044     0.8256856632
   14      O       4.1393070879     1.4808738121     1.9911692452
   15      O      -2.8604157616     2.3563755147    -1.3251393814
   16      O       2.8476267693     1.6906211256     0.0076106436
   17      O       1.9373417717    -0.6602782004     1.2735228822
   18      C       2.0535688546     2.6530696718     0.8031498105
   19      C       4.5610078071    -2.3889034185     0.2817317279
   20      C       5.8624758954    -2.6533058260    -0.5735050529
   21      C       6.7476390892    -1.4143860912    -0.1723568631
   22      C       5.7788295588    -0.6572144968     0.8165611494
   23      O       5.0722193787    -1.7563659266     1.5166117132
   24      H       3.6678128045    -1.3585246151    -1.5051661955
   25      H       5.0254565541     0.5228717651    -0.9399191679
   26      H       3.9633977186    -3.2896701050     0.5228780663
   27      H       6.3331103025    -3.6021882429    -0.2708562653
   28      H       5.6483527405    -2.6935364591    -1.6534499882
   29      H       7.6642175164    -1.7276940355     0.3520443206
   30      H       7.0296616419    -0.7942155407    -1.0382130105
   31      H       6.2621177165     0.0167130512     1.5500166614
   32      O      -2.2413799064    -0.6064040503    -2.4682450842
   33      C      -1.6977013700     3.2575054444    -1.1696138659
   34      C      -5.2265254481     0.5575543988     1.0991338198
   35      C      -6.6617675219    -0.0469342229     0.8388176242
   36      C      -6.2961913917    -1.3739776658     0.0751837802
   37      C      -4.7180242835    -1.2964336325     0.0630771739
   38      O      -4.3877735055    -0.6393056000     1.3456160315
   39      H      -5.4476155439     1.6711379100    -0.8337809047
   40      H      -4.8449482027    -0.3386695702    -1.9665607735
   41      H      -0.9706491592     2.8608921891    -0.4325767159
   42      H      -5.1425783955     1.2683411790     1.9441767918
   43      H      -7.1697506149    -0.2577780603     1.7933058402
   44      H      -7.2963906699     0.6269317053     0.2413632979
   45      H      -6.6326362579    -2.2649851275     0.6287083567
   46      H      -6.7160361173    -1.4109780934    -0.9428064021
   47      H      -4.1990062210    -2.2710294486    -0.0205406198
   48      H      -2.0080774112     4.2719750317    -0.8446084065
   49      H      -1.2216745576     3.3196895888    -2.1655689911
   50      H       1.3071927236     3.0822120507     0.1094890007
   51      H       2.6847644226     3.4654153479     1.2172734691
   52      H       1.5332209762     2.1477767356     1.6431743856
   53      H      -0.1003028488    -1.9495647288     0.7438232819
   54      H      -0.5967663379    -2.2796489072    -0.9698545066
   55      H      -0.0723148977     0.5055444507     0.3281531582
   56      H      -0.3334380656     0.2494670278    -1.4530344439
 ----------------------------------------------------------------

    9   -1510.2895618435      4.36E-09 Convergence criterion met
 Total energy in the final basis set = -1510.28956184
 Final energy is   -1510.28956184354
 **  OPTIMIZATION CONVERGED  **

                    Orbital Energies (a.u.)
 --------------------------------------------------------------

 Alpha MOs
 -- Occupied --
-18.938 -18.936 -18.933 -18.927 -18.889 -18.887 -18.878 -18.878
-18.877 -18.872 -10.102 -10.102 -10.101 -10.095 -10.073 -10.070
-10.067 -10.063 -10.061 -10.061 -10.059 -10.057 -10.040 -10.039
-10.039 -10.036 -10.022 -10.021 -10.021 -10.019  -1.019  -1.015
 -1.007  -1.004  -0.971  -0.970  -0.942  -0.938  -0.937  -0.932
 -0.766  -0.763  -0.729  -0.723  -0.712  -0.706  -0.695  -0.665
 -0.660  -0.620  -0.599  -0.585  -0.548  -0.545  -0.539  -0.537
 -0.513  -0.510  -0.487  -0.475  -0.467  -0.461  -0.452  -0.445
 -0.435  -0.431  -0.430  -0.419  -0.411  -0.409  -0.408  -0.398
 -0.390  -0.385  -0.374  -0.367  -0.364  -0.357  -0.354  -0.350
 -0.347  -0.344  -0.336  -0.333  -0.332  -0.327  -0.326  -0.311
 -0.310  -0.307  -0.304  -0.302  -0.293  -0.291  -0.283  -0.276
 -0.274  -0.261  -0.255  -0.251  -0.246  -0.235  -0.234  -0.192
 -0.178  -0.173  -0.168  -0.160  -0.157  -0.151  -0.148  -0.145
 -0.144

          Ground-State Mulliken Net Atomic Charges

     Atom                 Charge (a.u.)
  ----------------------------------------
      1 O                    -0.210284
      2 C                     0.216213
      3 C                    -0.078092
      4 C                    -0.078760
      5 C                     0.211937
      6 O                    -0.169519
      7 C                    -0.053884
      8 C                    -0.050688
      9 O                    -0.169534
     10 C                     0.211374
     11 C                    -0.079064
     12 C                    -0.079604
     13 C                     0.214867
     14 O                    -0.207902
     15 O                    -0.174895
     16 O                    -0.177825
     17 O                    -0.212529
     18 C                    -0.129704
     19 C                     0.025926
     20 C                    -0.143650
     21 C                    -0.144111
     22 C                     0.024952
     23 O                    -0.186593
     24 H                     0.087432
     25 H                     0.084178
     26 H                     0.082997
     27 H                     0.078384
     28 H                     0.074011
     29 H                     0.078530
     30 H                     0.073219
     31 H                     0.090687
     32 O                    -0.213194
     33 C                    -0.128906
     34 C                     0.024828
     35 C                    -0.143913
     36 C                    -0.143801
     37 C                     0.026001
     38 O                    -0.185470
     39 H                     0.084687
     40 H                     0.085829
     41 H                     0.087271
     42 H                     0.091102
     43 H                     0.078673
     44 H                     0.073298
     45 H                     0.078356
     46 H                     0.073856
     47 H                     0.081599
     48 H                     0.087499
     49 H                     0.090838
     50 H                     0.083758
     51 H                     0.089767
     52 H                     0.093669
     53 H                     0.094374
     54 H                     0.091629
     55 H                     0.095643
     56 H                     0.094543
  ----------------------------------------
  Sum of atomic charges =    -0.000000

                    Cartesian Multipole Moments
 -----------------------------------------------------------------
    Charge (ESU x 10^10)
                -0.0000
    Dipole Moment (Debye)
         X      -1.1226      Y       0.0602      Z      -3.2054
       Tot       3.3968
    Quadrupole Moments (Debye-Ang)
        XX    -138.0061     XY      -1.0663     YY    -151.7344
        XZ      -8.7176     YZ      -2.2063     ZZ    -175.0495

 Total job time:  81.68s(wall), 3889.97s(cpu)
        *  Thank you very much for using Q-Chem.  Have a nice day.  *
