 Q-Chem 5.0, Q-Chem, Inc., Pleasanton, CA (2017)
 Q-Chem 5.0.1 for Intel X86 EM64T Linux

User input:
--------------------------------------------------------------
$molecule
0  1
O -3.94934 -3.66094 2.70899
C -3.26408 -4.56952 2.26188
C -3.36658 -6.02376 2.66595
C -2.04986 -6.79228 2.86466
C -0.77767 -5.97575 2.81083
O -1.07586 -4.66884 2.54913
C -0.05545 -3.99691 1.80311
C 1.18388 -3.7974 2.66936
O 2.30268 -3.43192 1.8462
C 2.23535 -2.19941 1.28449
C 3.52699 -1.4263 1.40551
C 3.65983 -0.23375 0.44716
C 2.37835 0.22364 -0.22014
O 1.98572 1.37967 -0.2835
O -2.84624 -4.41349 0.96636
O 1.79532 -0.68389 -1.05164
O 1.19121 -1.56027 1.30524
C 0.68509 -0.4319 -1.83075
C 3.7084 -0.71756 2.76341
C 5.19708 -0.50578 3.02912
C 5.52095 0.55076 1.99104
C 4.11529 0.84471 1.44965
O 3.26543 0.60009 2.54459
H 4.358 -2.15593 1.26669
H 4.39174 -0.43606 -0.36544
H 3.23529 -1.26012 3.61094
H 5.27691 -0.04731 4.04114
H 5.8329 -1.41637 2.99199
H 5.94721 1.4355 2.51379
H 6.20099 0.22229 1.17528
H 4.07781 1.87003 1.02091
O 0.32223 -6.50819 2.74749
C -3.04537 -3.27879 0.20338
C -3.97219 -6.19262 4.07911
C -4.55765 -7.59641 4.23663
C -3.29251 -8.42197 4.33241
C -2.2361 -7.31449 4.29545
O -2.85836 -6.22927 4.93793
H -4.04095 -6.51483 1.92838
H -1.93926 -7.60228 2.10962
H -2.58704 -2.39359 0.69196
H -4.75118 -5.43774 4.32243
H -5.07573 -7.63172 5.22187
H -5.2674 -7.9022 3.43814
H -3.27879 -8.93199 5.32141
H -3.147 -9.1659 3.51938
H -1.28362 -7.67067 4.74686
H -4.1329 -3.09975 0.06541
H -2.57872 -3.42345 -0.79245
H 0.42557 -1.34769 -2.40032
H 0.89827 0.38808 -2.5493
H -0.17724 -0.15467 -1.18742
H 0.99311 -3.04764 3.46967
H 1.51977 -4.69766 3.20193
H -0.48125 -3.0445 1.45365
H 0.19353 -4.59727 0.89752
$end

$opt
CONSTRAINT
tors           1           2           3           4    -138.072
tors           3           4           5           6      -1.675
tors           4           5           6           7    -148.564
tors           5           6           7           8     -69.898
tors           6           7           8           9    +165.890
tors           7           8           9          10     +69.070
tors           8           9          10          11    +134.523
tors           9          10          11          12    +162.324
tors          11          12          13          14    +131.524
ENDCONSTRAINT
$end

$rem
JOBTYPE                   OPT
METHOD                    B3LYP
DFT_D                     d3_op
BASIS                     STO-3G
GEOM_OPT_MAX_CYCLES       100
GEOM_OPT_TOL_GRADIENT     300
GEOM_OPT_TOL_DISPLACEMENT 1200
GEOM_OPT_TOL_ENERGY       100
SYMMETRY                  False
THRESH                    12
SCF_CONVERGENCE           8
MAX_SUB_FILE_NUM          128
MEM_STATIC                400
MEM_TOTAL                 4000
$end
--------------------------------------------------------------

   15   -1510.1120967026      6.68E-09 Convergence criterion met
 Total energy in the final basis set = -1510.11209670
   14   -1510.1849362989      9.60E-09 Convergence criterion met
 Total energy in the final basis set = -1510.18493630
   14   -1510.2218939611      7.73E-09 Convergence criterion met
 Total energy in the final basis set = -1510.22189396
   15   -1510.2432817990      1.51E-09 Convergence criterion met
 Total energy in the final basis set = -1510.24328180
   14   -1510.2525934104      3.79E-09 Convergence criterion met
 Total energy in the final basis set = -1510.25259341
   13   -1510.2573477083      9.17E-09 Convergence criterion met
 Total energy in the final basis set = -1510.25734771
   13   -1510.2600825654      4.24E-09 Convergence criterion met
 Total energy in the final basis set = -1510.26008257
   12   -1510.2617488631      9.81E-09 Convergence criterion met
   11   -1510.2653639076      7.00E-09 Convergence criterion met
 Total energy in the final basis set = -1510.26536391
   11   -1510.2654242682      4.11E-09 Convergence criterion met
 Total energy in the final basis set = -1510.26542427
   11   -1510.2654636746      4.08E-09 Convergence criterion met
 Total energy in the final basis set = -1510.26546367
   11   -1510.2654808399      2.23E-09 Convergence criterion met
 Total energy in the final basis set = -1510.26548084
    9   -1510.2654854707      5.16E-09 Convergence criterion met
 Total energy in the final basis set = -1510.26548547
    9   -1510.2654869699      4.93E-09 Convergence criterion met
 Total energy in the final basis set = -1510.26548697

             Standard Nuclear Orientation (Angstroms)
    I     Atom           X                Y                Z
 ----------------------------------------------------------------
    1      O      -3.1761304666     1.8861505409     1.8480611917
    2      C      -3.4753157143     1.5795398960     0.6750183225
    3      C      -4.6557368011     0.6539623171     0.2071961454
    4      C      -4.3416466122    -0.3681963775    -0.9509920040
    5      C      -2.8385102706    -0.8387700768    -1.0398613218
    6      O      -2.0380145737    -0.1894270429    -0.0405776878
    7      C      -0.6393514727     0.0232583480    -0.4836789758
    8      C       0.1976151776    -1.3138638782    -0.5988061475
    9      O       1.4639523730    -1.1326142101    -1.3488987340
   10      C       2.3953295191    -0.3237781751    -0.6007306003
   11      C       3.8160241200    -0.9817526356    -0.6430515050
   12      C       4.9636906491     0.0307183130    -0.2469167311
   13      C       4.5173887809     1.5372390973    -0.2030869354
   14      O       4.7331908405     2.3611613209     0.7101777709
   15      O      -2.9689714709     2.2650001556    -0.4879576296
   16      O       3.9665729435     1.8746874507    -1.4858040627
   17      O       2.0804832906     0.6712593337     0.0911162656
   18      C       3.4844622513     3.2729775988    -1.4725361876
   19      C       3.9107583774    -2.0073955094     0.5718542833
   20      C       5.2528094109    -2.8326647427     0.4468997773
   21      C       6.3117578649    -1.7806330196     0.9479425513
   22      C       5.3916666456    -0.5202120406     1.1766360961
   23      O       4.1452989815    -1.1093149351     1.7243604302
   24      H       3.9796860422    -1.4684422718    -1.6203177955
   25      H       5.8004145794    -0.0447871905    -0.9658681160
   26      H       2.9993129061    -2.6170919773     0.7286579078
   27      H       5.2197300893    -3.7191493203     1.0998341059
   28      H       5.4382361796    -3.1630799789    -0.5878061736
   29      H       6.7760022364    -2.0974149040     1.8954682373
   30      H       7.1058993320    -1.5897529385     0.2089407911
   31      H       5.7849772308     0.2578850548     1.8596245296
   32      O      -2.3943411363    -1.6448662613    -1.8875961854
   33      C      -1.9770976911     3.2817540160    -0.0764056344
   34      C      -5.2705871292    -0.2981938373     1.3185205684
   35      C      -6.8007781837    -0.4650712796     0.9795638054
   36      C      -6.7076767143    -1.2975026320    -0.3545932381
   37      C      -5.1615770091    -1.6232842935    -0.4161604916
   38      O      -4.7313101031    -1.6442578035     1.0049969981
   39      H      -5.4396244186     1.3494741048    -0.1493906639
   40      H      -4.6617829810    -0.0142982937    -1.9472590672
   41      H      -1.1341815561     2.8358416414     0.4892929211
   42      H      -5.0249701364    -0.0063837500     2.3582861289
   43      H      -7.3071288968    -1.0381272236     1.7730075891
   44      H      -7.3181902503     0.4992082261     0.8513272250
   45      H      -7.2983783290    -2.2254381074    -0.3000765918
   46      H      -7.0378470911    -0.7228900422    -1.2350923686
   47      H      -4.8997879645    -2.5758311928    -0.9172138434
   48      H      -2.4372314690     4.0721495767     0.5519529910
   49      H      -1.5946637817     3.7325818710    -1.0107432729
   50      H       3.1504748426     3.4937541402    -2.5031113122
   51      H       4.2856174231     3.9816943956    -1.1792127390
   52      H       2.6321439973     3.3944396879    -0.7726116497
   53      H       0.3877854696    -1.7315068459     0.4130418233
   54      H      -0.4014831790    -2.0325610209    -1.1958404938
   55      H      -0.1753831623     0.6890295892     0.2704201853
   56      H      -0.6257555573     0.5353112942    -1.4703381869
 ----------------------------------------------------------------

    9   -1510.2654875321      3.79E-09 Convergence criterion met
 Total energy in the final basis set = -1510.26548753
 Final energy is   -1510.26548753210
 **  OPTIMIZATION CONVERGED  **

                    Orbital Energies (a.u.)
 --------------------------------------------------------------

 Alpha MOs
 -- Occupied --
-18.941 -18.928 -18.925 -18.919 -18.892 -18.889 -18.888 -18.885
-18.869 -18.863 -10.110 -10.108 -10.095 -10.095 -10.073 -10.069
-10.064 -10.060 -10.059 -10.058 -10.058 -10.057 -10.041 -10.041
-10.035 -10.034 -10.023 -10.021 -10.021 -10.019  -1.020  -1.015
 -1.002  -0.999  -0.972  -0.969  -0.947  -0.942  -0.930  -0.926
 -0.765  -0.763  -0.729  -0.724  -0.710  -0.703  -0.697  -0.658
 -0.657  -0.617  -0.598  -0.588  -0.547  -0.545  -0.539  -0.537
 -0.513  -0.510  -0.486  -0.478  -0.461  -0.458  -0.456  -0.448
 -0.434  -0.431  -0.428  -0.412  -0.408  -0.407  -0.405  -0.399
 -0.387  -0.381  -0.376  -0.369  -0.363  -0.361  -0.357  -0.350
 -0.345  -0.341  -0.335  -0.333  -0.331  -0.327  -0.323  -0.313
 -0.311  -0.307  -0.305  -0.303  -0.297  -0.294  -0.284  -0.273
 -0.270  -0.259  -0.249  -0.247  -0.239  -0.236  -0.233  -0.192
 -0.171  -0.169  -0.166  -0.164  -0.155  -0.148  -0.145  -0.145
 -0.143

          Ground-State Mulliken Net Atomic Charges

     Atom                 Charge (a.u.)
  ----------------------------------------
      1 O                    -0.220256
      2 C                     0.220228
      3 C                    -0.080324
      4 C                    -0.075550
      5 C                     0.220630
      6 O                    -0.168579
      7 C                    -0.050444
      8 C                    -0.056666
      9 O                    -0.178482
     10 C                     0.219124
     11 C                    -0.077022
     12 C                    -0.080667
     13 C                     0.215862
     14 O                    -0.213603
     15 O                    -0.180910
     16 O                    -0.176560
     17 O                    -0.201117
     18 C                    -0.128665
     19 C                     0.024608
     20 C                    -0.143856
     21 C                    -0.143086
     22 C                     0.023994
     23 O                    -0.189377
     24 H                     0.088783
     25 H                     0.084056
     26 H                     0.081293
     27 H                     0.079060
     28 H                     0.074698
     29 H                     0.078822
     30 H                     0.073805
     31 H                     0.092141
     32 O                    -0.207903
     33 C                    -0.129471
     34 C                     0.023047
     35 C                    -0.141515
     36 C                    -0.145563
     37 C                     0.023533
     38 O                    -0.192489
     39 H                     0.082456
     40 H                     0.089317
     41 H                     0.087896
     42 H                     0.091627
     43 H                     0.078195
     44 H                     0.073412
     45 H                     0.078492
     46 H                     0.073475
     47 H                     0.084671
     48 H                     0.085730
     49 H                     0.085828
     50 H                     0.087419
     51 H                     0.089029
     52 H                     0.089399
     53 H                     0.082223
     54 H                     0.107542
     55 H                     0.104432
     56 H                     0.087277
  ----------------------------------------
  Sum of atomic charges =    -0.000000

                    Cartesian Multipole Moments
 -----------------------------------------------------------------
    Charge (ESU x 10^10)
                -0.0000
    Dipole Moment (Debye)
         X      -0.2888      Y      -0.2640      Z      -2.6991
       Tot       2.7273
    Quadrupole Moments (Debye-Ang)
        XX    -136.7437     XY      -9.5201     YY    -155.7371
        XZ      -1.4939     YZ      -6.5410     ZZ    -169.1622

 Total job time:  59.55s(wall), 2830.48s(cpu)
        *  Thank you very much for using Q-Chem.  Have a nice day.  *
