 Q-Chem 5.0, Q-Chem, Inc., Pleasanton, CA (2017)
 Q-Chem 5.0.1 for Intel X86 EM64T Linux

User input:
--------------------------------------------------------------
$molecule
0  1
O -3.4616613754 0.7454940837 2.1195611724
C -4.1771448779 0.8604554942 1.1023652132
C -4.548893061 -0.2621162094 0.0616722464
C -3.481027565 -0.4573597406 -1.0905453045
C -2.3533259522 0.6301107664 -1.1273004262
O -1.6195678599 0.4398939959 -2.3394671632
C -0.146543388 0.6592147405 -2.2795857467
C 0.4934865798 1.4269306401 -1.0590158614
O 1.7870955912 0.7609285534 -0.7772230347
C 2.832674816 1.7077022301 -0.5683456254
C 4.0598449634 1.0783498827 0.1815023905
C 3.8456642128 -0.0037970943 1.3267005842
C 2.502111543 -0.8138993665 1.4340544961
O 1.917186307 -1.0859502371 2.5077501496
O -4.8461829164 2.0669645302 0.7100001717
O 2.1934188351 -1.4536454238 0.1927534089
O 2.7639134257 2.9104820005 -0.9134336621
C 0.9711395339 -2.2760737113 0.3452804776
C 5.1018936389 0.3250154892 -0.7702725521
C 6.5334041971 0.5224142266 -0.136822231
C 6.4118367424 -0.3916539354 1.1393819081
C 4.9872908905 -1.0441291067 0.9216257333
O 4.8407626486 -1.1124015923 -0.5496471562
H 4.5676494026 1.9529054831 0.627343425
H 4.0258651386 0.4437228036 2.3200314859
H 5.0171272143 0.5771456213 -1.8451031518
H 7.3100167498 0.1514895333 -0.8250542435
H 6.7469672474 1.5753946018 0.1062050144
H 7.193178418 -1.1678531028 1.1610447561
H 6.4599963238 0.1829242953 2.0782912773
H 4.8613504587 -2.0492434507 1.3690119061
O -2.1459446894 1.5150805346 -0.2659139036
C -4.45070081 3.1708810382 1.6129560535
C -4.457342876 -1.6814953501 0.7704589224
C -5.1052327295 -2.7735983788 -0.1688709709
C -3.9741455341 -2.9649966219 -1.2464100471
C -2.9118084415 -1.9056054112 -0.7544260987
O -3.0056724762 -1.9838818953 0.7183075637
H -5.5507458479 -0.052019062 -0.3514847986
H -3.9667409538 -0.465535808 -2.0833265815
H -3.3550603096 3.3406714469 1.5820023477
H -4.8095533131 -1.688781422 1.8200050126
H -5.293239727 -3.7037270901 0.3905882135
H -6.0547206343 -2.4278439933 -0.6078993743
H -3.5473004675 -3.9800946129 -1.2082781192
H -4.3204408763 -2.7638823802 -2.2726707958
H -1.8733854268 -2.0797694802 -1.0964919564
H -4.7469053333 2.9685193764 2.6627378261
H -4.9775789444 4.0712662922 1.2470287554
H 0.8071942388 -2.7562457973 -0.6369691091
H 0.0884460634 -1.657250737 0.6085590577
H 1.0936638261 -3.0561615928 1.1241852624
H 0.664096008 2.4980626615 -1.2945989999
H -0.1627919104 1.3516225046 -0.1668576072
H 0.1215594837 1.1657614781 -3.2308362656
H 0.3193359852 -0.3532007074 -2.2956632759
$end

$rem
JOBTYPE                   OPT
METHOD                    B3LYP
DFT_D                     d3_op
BASIS                     STO-3G
GEOM_OPT_MAX_CYCLES       100
GEOM_OPT_TOL_GRADIENT     300
GEOM_OPT_TOL_DISPLACEMENT 1200
GEOM_OPT_TOL_ENERGY       100
SYMMETRY                  False
THRESH                    12
SCF_CONVERGENCE           8
MAX_SUB_FILE_NUM          128
MEM_STATIC                400
MEM_TOTAL                 4000
$end
--------------------------------------------------------------

   16   -1510.2570036188      8.10E-09 Convergence criterion met
 Total energy in the final basis set = -1510.25700362
   14   -1510.2610577176      2.10E-09 Convergence criterion met
 Total energy in the final basis set = -1510.26105772
   13   -1510.2647776137      9.07E-09 Convergence criterion met
 Total energy in the final basis set = -1510.26477761
   13   -1510.2681738394      8.68E-09 Convergence criterion met
 Total energy in the final basis set = -1510.26817384
   14   -1510.2714315822      7.14E-09 Convergence criterion met
 Total energy in the final basis set = -1510.27143158
   14   -1510.2747413147      4.46E-09 Convergence criterion met
 Total energy in the final basis set = -1510.27474131
   14   -1510.2772378575      7.05E-09 Convergence criterion met
 Total energy in the final basis set = -1510.27723786
   14   -1510.2803199370      6.85E-09 Convergence criterion met
   11   -1510.3007353723      6.36E-09 Convergence criterion met
 Total energy in the final basis set = -1510.30073537
   12   -1510.3007566478      1.96E-09 Convergence criterion met
 Total energy in the final basis set = -1510.30075665
   11   -1510.3007720713      7.72E-09 Convergence criterion met
 Total energy in the final basis set = -1510.30077207
   11   -1510.3007921359      2.99E-09 Convergence criterion met
 Total energy in the final basis set = -1510.30079214
   11   -1510.3008017892      3.66E-09 Convergence criterion met
 Total energy in the final basis set = -1510.30080179
   10   -1510.3008057736      6.59E-09 Convergence criterion met
 Total energy in the final basis set = -1510.30080577

             Standard Nuclear Orientation (Angstroms)
    I     Atom           X                Y                Z
 ----------------------------------------------------------------
    1      O      -2.2043546788     0.3633841850     2.0635712312
    2      C      -2.5660864055     0.6506282337     0.9002147061
    3      C      -3.5410516147    -0.1873811614    -0.0055742496
    4      C      -2.9469158697    -0.7405870513    -1.3722611440
    5      C      -1.4360288999    -0.4192603510    -1.6174377875
    6      O      -1.3456057580     0.5422118473    -2.6707664067
    7      C       0.0713600981     0.8877903161    -2.9455466674
    8      C       0.6284041998     1.9307545881    -1.9038542980
    9      O       1.8239630324     1.3186144226    -1.2807851578
   10      C       2.1954909918     2.0409146652    -0.0969514553
   11      C       3.4204550348     1.3128398474     0.5734902129
   12      C       3.0382872307     0.0199831739     1.4073955768
   13      C       1.4969490127    -0.2658093642     1.3939218758
   14      O       0.6086841857     0.5333461923     1.0116523912
   15      O      -2.2206341176     1.8578977717     0.2240249576
   16      O       1.2428802469    -1.5725712914     1.8755403546
   17      O       1.6944006615     3.1329822955     0.2502058964
   18      C      -0.2044856976    -1.8910813351     1.7281608477
   19      C       4.4042062782     0.6825238325    -0.5023333511
   20      C       5.7751012671     0.3444817370     0.2073562333
   21      C       5.3871295918    -0.9442758205     1.0232280820
   22      C       3.8630576682    -1.0985396093     0.6379391258
   23      O       3.8154714874    -0.6501179000    -0.7715497022
   24      H       3.9306000540     2.0556855182     1.2114964773
   25      H       3.3705968822     0.1045255479     2.4585742177
   26      H       4.4901215234     1.2624728681    -1.4412716456
   27      H       6.5523682600     0.1283830100    -0.5428022181
   28      H       6.1252787622     1.1679751621     0.8500396254
   29      H       5.9596848735    -1.8232858171     0.6871352238
   30      H       5.5310778093    -0.8218818839     2.1085865021
   31      H       3.4416806822    -2.1170913886     0.7427684610
   32      O      -0.4438236688    -0.9400378822    -1.0579535976
   33      C      -1.3930084641     2.7097100280     1.1191062299
   34      C      -3.9532149883    -1.5390552720     0.7140316448
   35      C      -5.2684786537    -2.0857669024     0.0362775405
   36      C      -4.7031228406    -2.6199760868    -1.3321033817
   37      C      -3.1639409798    -2.3036526893    -1.1718426246
   38      O      -2.9122519977    -2.4969615010     0.2729840694
   39      H      -4.4234674155     0.4452676090    -0.2148272950
   40      H      -3.5187968497    -0.3503927608    -2.2321384202
   41      H      -0.4345660651     2.1971408010     1.3458307138
   42      H      -3.9670703696    -1.4685016266     1.8189691832
   43      H      -5.7030064031    -2.8994631112     0.6383411603
   44      H      -6.0270847303    -1.2979192065    -0.0949866981
   45      H      -4.8636562648    -3.7043163772    -1.4416998646
   46      H      -5.1415932748    -2.1073495339    -2.2032231224
   47      H      -2.4842929933    -2.9399549306    -1.7713384409
   48      H      -1.9295111220     2.9378122442     2.0617472346
   49      H      -1.2007580251     3.6433124580     0.5604169177
   50      H      -0.3255326646    -2.9248424987     2.0967938242
   51      H      -0.5016163848    -1.8086835881     0.6570348804
   52      H      -0.8399440395    -1.1917147893     2.3124751451
   53      H       0.8923925404     2.8886201653    -2.4030614292
   54      H      -0.1552513990     2.1408626432    -1.1450066861
   55      H       0.0754264426     1.3056719707    -3.9713423520
   56      H       0.7111365526    -0.0204406238    -2.9056384084
 ----------------------------------------------------------------

    9   -1510.3008058953      3.85E-09 Convergence criterion met
 Total energy in the final basis set = -1510.30080590
 Final energy is   -1510.30080589530
 **  OPTIMIZATION CONVERGED  **

                    Orbital Energies (a.u.)
 --------------------------------------------------------------

 Alpha MOs
 -- Occupied --
-18.937 -18.930 -18.927 -18.916 -18.889 -18.882 -18.881 -18.872
-18.869 -18.853 -10.103 -10.097 -10.095 -10.087 -10.069 -10.062
-10.061 -10.058 -10.054 -10.053 -10.044 -10.040 -10.038 -10.031
-10.027 -10.025 -10.022 -10.021 -10.015 -10.014  -1.015  -1.006
 -1.004  -0.993  -0.972  -0.963  -0.939  -0.931  -0.927  -0.921
 -0.764  -0.756  -0.726  -0.718  -0.710  -0.703  -0.691  -0.652
 -0.640  -0.612  -0.591  -0.577  -0.544  -0.539  -0.537  -0.531
 -0.512  -0.506  -0.481  -0.465  -0.462  -0.452  -0.449  -0.440
 -0.431  -0.428  -0.427  -0.411  -0.406  -0.401  -0.396  -0.392
 -0.389  -0.369  -0.366  -0.362  -0.357  -0.352  -0.350  -0.346
 -0.334  -0.333  -0.330  -0.328  -0.323  -0.321  -0.317  -0.311
 -0.306  -0.305  -0.298  -0.297  -0.289  -0.282  -0.275  -0.270
 -0.269  -0.254  -0.247  -0.242  -0.238  -0.234  -0.228  -0.183
 -0.175  -0.164  -0.160  -0.155  -0.148  -0.147  -0.145  -0.137
 -0.136

          Ground-State Mulliken Net Atomic Charges

     Atom                 Charge (a.u.)
  ----------------------------------------
      1 O                    -0.213331
      2 C                     0.213916
      3 C                    -0.079086
      4 C                    -0.079185
      5 C                     0.213699
      6 O                    -0.168157
      7 C                    -0.050523
      8 C                    -0.050171
      9 O                    -0.172382
     10 C                     0.213924
     11 C                    -0.081591
     12 C                    -0.078477
     13 C                     0.222496
     14 O                    -0.218009
     15 O                    -0.172441
     16 O                    -0.169793
     17 O                    -0.227006
     18 C                    -0.147420
     19 C                     0.026246
     20 C                    -0.144570
     21 C                    -0.143956
     22 C                     0.025067
     23 O                    -0.187482
     24 H                     0.081539
     25 H                     0.084515
     26 H                     0.082844
     27 H                     0.076361
     28 H                     0.072623
     29 H                     0.077021
     30 H                     0.072833
     31 H                     0.090147
     32 O                    -0.206108
     33 C                    -0.138780
     34 C                     0.023780
     35 C                    -0.143964
     36 C                    -0.143929
     37 C                     0.025206
     38 O                    -0.188747
     39 H                     0.085052
     40 H                     0.087545
     41 H                     0.114547
     42 H                     0.090091
     43 H                     0.078456
     44 H                     0.073696
     45 H                     0.078433
     46 H                     0.073969
     47 H                     0.083985
     48 H                     0.082990
     49 H                     0.089787
     50 H                     0.081795
     51 H                     0.112742
     52 H                     0.095878
     53 H                     0.080836
     54 H                     0.100542
     55 H                     0.088503
     56 H                     0.104045
  ----------------------------------------
  Sum of atomic charges =     0.000000

                    Cartesian Multipole Moments
 -----------------------------------------------------------------
    Charge (ESU x 10^10)
                 0.0000
    Dipole Moment (Debye)
         X      -0.9200      Y       0.0012      Z      -1.1553
       Tot       1.4769
    Quadrupole Moments (Debye-Ang)
        XX    -138.5009     XY       3.9134     YY    -162.7236
        XZ       6.0571     YZ      -0.1227     ZZ    -155.9941

 Total job time:  184.49s(wall), 8804.42s(cpu)
        *  Thank you very much for using Q-Chem.  Have a nice day.  *
