 Q-Chem 5.0, Q-Chem, Inc., Pleasanton, CA (2017)
 Q-Chem 5.0.1 for Intel X86 EM64T Linux

User input:
--------------------------------------------------------------
$molecule
0  1
O -3.94934 -3.66094 2.70899
C -3.26408 -4.56952 2.26188
C -3.36658 -6.02376 2.66595
C -2.56926 -6.46701 3.90355
C -1.90026 -5.37089 4.70296
O -1.06521 -5.91939 5.63422
C -1.05734 -5.20423 6.87428
C -1.67617 -3.82272 6.68825
O -2.43975 -3.46778 7.85179
C -2.25196 -2.20515 8.30965
C -3.36742 -1.73468 9.21245
C -4.77024 -2.21423 8.81192
C -4.81913 -3.35397 7.81427
O -5.60439 -3.44662 6.88189
O -2.37472 -4.29162 1.27243
O -4.4368 -4.55633 8.35285
O -1.42081 -1.42608 7.85965
C -4.93341 -5.78934 7.99508
C -3.28777 -2.28142 10.65513
C -4.01944 -1.32626 11.59819
C -5.45765 -1.55628 11.17214
C -5.26649 -2.71591 10.18563
O -4.13841 -3.39883 10.67822
H -3.28822 -0.62492 9.27714
H -5.39646 -1.39093 8.40289
H -2.24589 -2.45109 11.0043
H -3.88385 -1.7307 12.62724
H -3.68429 -0.26694 11.57975
H -6.04072 -1.87442 12.06452
H -5.95125 -0.69108 10.67872
H -6.19872 -3.31609 10.09429
O -1.53458 -4.34827 4.13205
C -2.1572 -3.03191 0.755
C -4.79281 -6.40061 3.11092
C -5.00943 -7.90623 2.96467
C -4.15251 -8.42528 4.0995
C -3.69249 -7.10518 4.7274
O -4.77299 -6.2311 4.50501
H -3.11267 -6.62639 1.76416
H -1.77795 -7.20237 3.63206
H -1.80094 -2.34681 1.55388
H -5.58441 -5.8463 2.56021
H -6.07726 -8.11128 3.20546
H -4.77318 -8.32204 1.96158
H -4.80653 -8.98143 4.80756
H -3.29485 -9.06327 3.79449
H -3.38682 -7.27607 5.78166
H -3.0937 -2.63426 0.30864
H -1.38201 -3.09243 -0.03612
H -4.40473 -6.57843 8.56793
H -4.78397 -5.95342 6.92102
H -6.01914 -5.8409 8.22414
H -0.92005 -3.09365 6.31935
H -2.55763 -3.70527 6.02948
H -0.03639 -5.11882 7.30171
H -1.67888 -5.80373 7.57444
$end

$opt
CONSTRAINT
tors           1           2           3           4     -85.736
tors           3           4           5           6    -170.460
tors           4           5           6           7    -142.783
tors           5           6           7           8     -15.766
tors           6           7           8           9    +143.003
tors           7           8           9          10    +134.931
tors           8           9          10          11    +161.053
tors           9          10          11          12     -36.711
tors          11          12          13          14    -139.378
ENDCONSTRAINT
$end

$rem
JOBTYPE                   OPT
METHOD                    B3LYP
DFT_D                     d3_op
BASIS                     STO-3G
GEOM_OPT_MAX_CYCLES       100
GEOM_OPT_TOL_GRADIENT     300
GEOM_OPT_TOL_DISPLACEMENT 1200
GEOM_OPT_TOL_ENERGY       100
SYMMETRY                  False
THRESH                    12
SCF_CONVERGENCE           8
MAX_SUB_FILE_NUM          128
MEM_STATIC                400
MEM_TOTAL                 4000
$end
--------------------------------------------------------------

   15   -1510.0742704417      8.49E-09 Convergence criterion met
 Total energy in the final basis set = -1510.07427044
   15   -1510.1519931091      2.16E-09 Convergence criterion met
 Total energy in the final basis set = -1510.15199311
   14   -1510.1971120018      3.12E-09 Convergence criterion met
 Total energy in the final basis set = -1510.19711200
   14   -1510.2223251894      9.19E-09 Convergence criterion met
 Total energy in the final basis set = -1510.22232519
   14   -1510.2363172154      9.33E-09 Convergence criterion met
 Total energy in the final basis set = -1510.23631722
   13   -1510.2444405417      3.95E-09 Convergence criterion met
 Total energy in the final basis set = -1510.24444054
   13   -1510.2496504266      4.95E-09 Convergence criterion met
 Total energy in the final basis set = -1510.24965043
   13   -1510.2531171550      3.43E-09 Convergence criterion met
   11   -1510.2569718145      5.08E-09 Convergence criterion met
 Total energy in the final basis set = -1510.25697181
   11   -1510.2569879188      3.79E-09 Convergence criterion met
 Total energy in the final basis set = -1510.25698792
    9   -1510.2569984598      8.06E-09 Convergence criterion met
 Total energy in the final basis set = -1510.25699846
    9   -1510.2570088348      8.97E-09 Convergence criterion met
 Total energy in the final basis set = -1510.25700883
   10   -1510.2570166176      4.97E-09 Convergence criterion met
 Total energy in the final basis set = -1510.25701662
   10   -1510.2570203810      5.29E-09 Convergence criterion met
 Total energy in the final basis set = -1510.25702038

             Standard Nuclear Orientation (Angstroms)
    I     Atom           X                Y                Z
 ----------------------------------------------------------------
    1      O      -3.4616613754     0.7454940837     2.1195611724
    2      C      -4.1771448779     0.8604554942     1.1023652132
    3      C      -4.5488930610    -0.2621162094     0.0616722464
    4      C      -3.4810275650    -0.4573597406    -1.0905453045
    5      C      -2.3533259522     0.6301107664    -1.1273004262
    6      O      -1.6195678599     0.4398939959    -2.3394671632
    7      C      -0.1465433880     0.6592147405    -2.2795857467
    8      C       0.4934865798     1.4269306401    -1.0590158614
    9      O       1.7870955912     0.7609285534    -0.7772230347
   10      C       2.8326748160     1.7077022301    -0.5683456254
   11      C       4.0598449634     1.0783498827     0.1815023905
   12      C       3.8456642128    -0.0037970943     1.3267005842
   13      C       2.5021115430    -0.8138993665     1.4340544961
   14      O       1.9171863070    -1.0859502371     2.5077501496
   15      O      -4.8461829164     2.0669645302     0.7100001717
   16      O       2.1934188351    -1.4536454238     0.1927534089
   17      O       2.7639134257     2.9104820005    -0.9134336621
   18      C       0.9711395339    -2.2760737113     0.3452804776
   19      C       5.1018936389     0.3250154892    -0.7702725521
   20      C       6.5334041971     0.5224142266    -0.1368222310
   21      C       6.4118367424    -0.3916539354     1.1393819081
   22      C       4.9872908905    -1.0441291067     0.9216257333
   23      O       4.8407626486    -1.1124015923    -0.5496471562
   24      H       4.5676494026     1.9529054831     0.6273434250
   25      H       4.0258651386     0.4437228036     2.3200314859
   26      H       5.0171272143     0.5771456213    -1.8451031518
   27      H       7.3100167498     0.1514895333    -0.8250542435
   28      H       6.7469672474     1.5753946018     0.1062050144
   29      H       7.1931784180    -1.1678531028     1.1610447561
   30      H       6.4599963238     0.1829242953     2.0782912773
   31      H       4.8613504587    -2.0492434507     1.3690119061
   32      O      -2.1459446894     1.5150805346    -0.2659139036
   33      C      -4.4507008100     3.1708810382     1.6129560535
   34      C      -4.4573428760    -1.6814953501     0.7704589224
   35      C      -5.1052327295    -2.7735983788    -0.1688709709
   36      C      -3.9741455341    -2.9649966219    -1.2464100471
   37      C      -2.9118084415    -1.9056054112    -0.7544260987
   38      O      -3.0056724762    -1.9838818953     0.7183075637
   39      H      -5.5507458479    -0.0520190620    -0.3514847986
   40      H      -3.9667409538    -0.4655358080    -2.0833265815
   41      H      -3.3550603096     3.3406714469     1.5820023477
   42      H      -4.8095533131    -1.6887814220     1.8200050126
   43      H      -5.2932397270    -3.7037270901     0.3905882135
   44      H      -6.0547206343    -2.4278439933    -0.6078993743
   45      H      -3.5473004675    -3.9800946129    -1.2082781192
   46      H      -4.3204408763    -2.7638823802    -2.2726707958
   47      H      -1.8733854268    -2.0797694802    -1.0964919564
   48      H      -4.7469053333     2.9685193764     2.6627378261
   49      H      -4.9775789444     4.0712662922     1.2470287554
   50      H       0.8071942388    -2.7562457973    -0.6369691091
   51      H       0.0884460634    -1.6572507370     0.6085590577
   52      H       1.0936638261    -3.0561615928     1.1241852624
   53      H       0.6640960080     2.4980626615    -1.2945989999
   54      H      -0.1627919104     1.3516225046    -0.1668576072
   55      H       0.1215594837     1.1657614781    -3.2308362656
   56      H       0.3193359852    -0.3532007074    -2.2956632759
 ----------------------------------------------------------------

    9   -1510.2570211061      4.69E-09 Convergence criterion met
 Total energy in the final basis set = -1510.25702111
 Final energy is   -1510.25702110605
 **  OPTIMIZATION CONVERGED  **

                    Orbital Energies (a.u.)
 --------------------------------------------------------------

 Alpha MOs
 -- Occupied --
-18.936 -18.933 -18.928 -18.921 -18.897 -18.890 -18.890 -18.874
-18.864 -18.860 -10.116 -10.101 -10.091 -10.089 -10.078 -10.065
-10.065 -10.061 -10.060 -10.059 -10.057 -10.054 -10.041 -10.038
-10.036 -10.034 -10.023 -10.021 -10.021 -10.020  -1.020  -1.013
 -1.002  -0.998  -0.973  -0.972  -0.950  -0.937  -0.925  -0.924
 -0.765  -0.761  -0.728  -0.722  -0.714  -0.706  -0.698  -0.656
 -0.655  -0.620  -0.598  -0.586  -0.548  -0.544  -0.539  -0.538
 -0.516  -0.514  -0.483  -0.472  -0.469  -0.455  -0.453  -0.445
 -0.434  -0.432  -0.420  -0.410  -0.409  -0.405  -0.403  -0.397
 -0.387  -0.384  -0.375  -0.367  -0.363  -0.356  -0.349  -0.347
 -0.343  -0.341  -0.335  -0.333  -0.333  -0.329  -0.328  -0.315
 -0.312  -0.308  -0.307  -0.304  -0.298  -0.284  -0.278  -0.276
 -0.274  -0.253  -0.250  -0.245  -0.237  -0.235  -0.234  -0.182
 -0.179  -0.167  -0.164  -0.156  -0.153  -0.147  -0.144  -0.142
 -0.140

          Ground-State Mulliken Net Atomic Charges

     Atom                 Charge (a.u.)
  ----------------------------------------
      1 O                    -0.213822
      2 C                     0.213534
      3 C                    -0.081669
      4 C                    -0.078897
      5 C                     0.219811
      6 O                    -0.178187
      7 C                    -0.051393
      8 C                    -0.062953
      9 O                    -0.168541
     10 C                     0.207749
     11 C                    -0.080295
     12 C                    -0.078242
     13 C                     0.207947
     14 O                    -0.215700
     15 O                    -0.174292
     16 O                    -0.157020
     17 O                    -0.215846
     18 C                    -0.127952
     19 C                     0.026764
     20 C                    -0.142198
     21 C                    -0.145196
     22 C                     0.026561
     23 O                    -0.184286
     24 H                     0.085829
     25 H                     0.085574
     26 H                     0.083276
     27 H                     0.077917
     28 H                     0.074916
     29 H                     0.078334
     30 H                     0.074731
     31 H                     0.083195
     32 O                    -0.199467
     33 C                    -0.128476
     34 C                     0.026284
     35 C                    -0.144896
     36 C                    -0.142561
     37 C                     0.024613
     38 O                    -0.187437
     39 H                     0.084985
     40 H                     0.087609
     41 H                     0.093003
     42 H                     0.087001
     43 H                     0.078572
     44 H                     0.074113
     45 H                     0.078294
     46 H                     0.074506
     47 H                     0.080978
     48 H                     0.086151
     49 H                     0.086790
     50 H                     0.085160
     51 H                     0.090341
     52 H                     0.089887
     53 H                     0.099933
     54 H                     0.104654
     55 H                     0.089119
     56 H                     0.091196
  ----------------------------------------
  Sum of atomic charges =     0.000000

                    Cartesian Multipole Moments
 -----------------------------------------------------------------
    Charge (ESU x 10^10)
                 0.0000
    Dipole Moment (Debye)
         X      -0.3698      Y      -0.7277      Z      -1.8346
       Tot       2.0080
    Quadrupole Moments (Debye-Ang)
        XX    -137.8742     XY       4.4033     YY    -159.1725
        XZ       7.1955     YZ       4.3201     ZZ    -164.3085

 Total job time:  61.85s(wall), 2946.53s(cpu)
        *  Thank you very much for using Q-Chem.  Have a nice day.  *
