 Q-Chem 5.0, Q-Chem, Inc., Pleasanton, CA (2017)
 Q-Chem 5.0.1 for Intel X86 EM64T Linux

User input:
--------------------------------------------------------------
$molecule
0  1
O -3.94934 -3.66094 2.70899
C -3.26408 -4.56952 2.26188
C -3.36658 -6.02376 2.66595
C -2.46794 -6.49734 3.82008
C -1.69747 -5.42532 4.55848
O -1.62107 -4.2975 3.79192
C -0.27554 -3.88948 3.52299
C 0.12632 -2.75396 4.45853
O 1.41483 -3.02523 5.03215
C 2.27997 -1.98093 5.04268
C 3.03459 -1.82892 3.74341
C 4.06848 -2.92918 3.46277
C 3.95072 -4.17875 4.31213
O 4.03801 -5.32652 3.90035
O -2.4528 -4.30951 1.20065
O 4.02405 -3.98981 5.65767
O 2.32128 -1.17365 5.95823
C 4.01389 -5.0045 6.59202
C 2.26956 -1.8302 2.40028
C 3.08374 -1.09594 1.33209
C 4.19975 -2.08784 1.08619
C 3.74943 -3.23827 1.98965
O 2.34459 -3.1648 1.9582
H 3.55218 -0.84586 3.82957
H 5.10583 -2.55947 3.62229
H 1.26776 -1.36527 2.43545
H 2.45282 -1.04395 0.4154
H 3.41124 -0.06962 1.6047
H 4.16642 -2.39706 0.01769
H 5.2197 -1.73104 1.34704
H 4.1995 -4.19357 1.64213
O -0.98892 -5.64242 5.53327
C -2.31996 -3.06982 0.60917
C -4.75584 -6.33687 3.2642
C -5.04704 -7.83489 3.173
C -4.11593 -8.36646 4.24003
C -3.53616 -7.05539 4.77833
O -4.59195 -6.13744 4.6452
H -3.24988 -6.6333 1.74151
H -1.73606 -7.27754 3.51545
H -1.95128 -2.32705 1.34855
H -5.57845 -5.76431 2.78138
H -6.09663 -7.99272 3.51014
H -4.91528 -8.27686 2.16198
H -4.72852 -8.8629 5.02546
H -3.32549 -9.06031 3.88051
H -3.14955 -7.20555 5.81076
H -3.29709 -2.73507 0.20027
H -1.58913 -3.13997 -0.22228
H 4.07915 -4.56367 7.60778
H 4.88368 -5.67809 6.43755
H 3.0694 -5.58452 6.51374
H -0.06421 -1.73191 4.06985
H -0.55411 -2.82458 5.33461
H -0.13576 -3.61696 2.4592
H 0.43126 -4.74006 3.68587
$end

$opt
CONSTRAINT
tors           1           2           3           4     -91.383
tors           3           4           5           6     -19.324
tors           4           5           6           7    -121.781
tors           5           6           7           8     -99.988
tors           6           7           8           9    +132.561
tors           7           8           9          10    +134.948
tors           8           9          10          11     -84.351
tors           9          10          11          12     -69.838
tors          11          12          13          14    +136.230
ENDCONSTRAINT
$end

$rem
JOBTYPE                   OPT
METHOD                    B3LYP
DFT_D                     d3_op
BASIS                     STO-3G
GEOM_OPT_MAX_CYCLES       100
GEOM_OPT_TOL_GRADIENT     300
GEOM_OPT_TOL_DISPLACEMENT 1200
GEOM_OPT_TOL_ENERGY       100
SYMMETRY                  False
THRESH                    12
SCF_CONVERGENCE           8
MAX_SUB_FILE_NUM          128
MEM_STATIC                400
MEM_TOTAL                 4000
$end
--------------------------------------------------------------

   15   -1510.1039099728      7.79E-09 Convergence criterion met
 Total energy in the final basis set = -1510.10390997
   14   -1510.1761609713      5.44E-09 Convergence criterion met
 Total energy in the final basis set = -1510.17616097
   14   -1510.2137086714      2.53E-09 Convergence criterion met
 Total energy in the final basis set = -1510.21370867
   14   -1510.2312412388      6.86E-09 Convergence criterion met
 Total energy in the final basis set = -1510.23124124
   14   -1510.2392762531      4.81E-09 Convergence criterion met
 Total energy in the final basis set = -1510.23927625
   13   -1510.2418654226      5.69E-09 Convergence criterion met
 Total energy in the final basis set = -1510.24186542
   13   -1510.2429083258      4.70E-09 Convergence criterion met
 Total energy in the final basis set = -1510.24290833
   12   -1510.2435316130      7.25E-09 Convergence criterion met
   11   -1510.2438038594      8.08E-09 Convergence criterion met
 Total energy in the final basis set = -1510.24380386
   11   -1510.2438864288      8.48E-09 Convergence criterion met
 Total energy in the final basis set = -1510.24388643
   11   -1510.2439282692      4.13E-09 Convergence criterion met
 Total energy in the final basis set = -1510.24392827
   11   -1510.2439444456      2.45E-09 Convergence criterion met
 Total energy in the final basis set = -1510.24394445
    9   -1510.2439477071      7.19E-09 Convergence criterion met
 Total energy in the final basis set = -1510.24394771
    9   -1510.2439499513      3.60E-09 Convergence criterion met
 Total energy in the final basis set = -1510.24394995

             Standard Nuclear Orientation (Angstroms)
    I     Atom           X                Y                Z
 ----------------------------------------------------------------
    1      O      -3.6153389650     1.9294255873     1.5274265370
    2      C      -3.3449385023     1.6781811089     0.3341148096
    3      C      -4.0122460578     0.5945224754    -0.5907745441
    4      C      -3.3262659396    -0.8343195713    -0.6125718033
    5      C      -2.0917079383    -1.0477651821     0.3442304850
    6      O      -1.5091589054     0.2076828104     0.7573496463
    7      C      -0.0816282533     0.2958825317     0.3769413695
    8      C       0.8714675505    -0.0286157332     1.6016563269
    9      O       1.9011437676    -0.9857308357     1.1470322247
   10      C       3.2317439493    -0.5960720719     1.6143885304
   11      C       3.9809789224     0.4687253036     0.7034947314
   12      C       4.4312089595    -0.1335892726    -0.6978897021
   13      C       3.8285513020    -1.5523895687    -1.0014777911
   14      O       3.3390674073    -1.9515305496    -2.0785752192
   15      O      -2.4661606560     2.4771451779    -0.4797824739
   16      O       3.9682277467    -2.3590630183     0.1712559021
   17      O       3.7188888778    -1.0517439003     2.6694405381
   18      C       3.2563898553    -3.6480056366     0.0098858847
   19      C       3.1636752159     1.7415057801     0.2114238017
   20      C       4.2072222166     2.8340471867    -0.2585429151
   21      C       4.6707642728     2.2434126654    -1.6410138466
   22      C       3.8154250965     0.9217818323    -1.7043894227
   23      O       2.5361452134     1.2957969548    -1.0520183883
   24      H       4.8693448019     0.7830662034     1.2804196745
   25      H       5.5326973426    -0.1905470577    -0.7735231818
   26      H       2.4018968876     2.1249031867     0.9135788634
   27      H       3.7082570754     3.8085917934    -0.3815398215
   28      H       5.0360649459     2.9494157096     0.4576194113
   29      H       4.4128438908     2.9144331306    -2.4756603878
   30      H       5.7524080672     2.0372190447    -1.6742484293
   31      H       3.6258696658     0.5109765830    -2.7154277561
   32      O      -1.6166275229    -2.1613894195     0.6496928170
   33      C      -1.8496080652     3.5340309052     0.3513642675
   34      C      -5.4665180386     0.2118258919    -0.0745505558
   35      C      -6.2655102303    -0.4301492924    -1.2751122717
   36      C      -5.5747568687    -1.8412554718    -1.3749830832
   37      C      -4.5411465727    -1.7616738933    -0.1838957640
   38      O      -5.2323802896    -0.9358649213     0.8322620570
   39      H      -4.0453347858     1.0103516020    -1.6135324849
   40      H      -2.9694472600    -1.0817503069    -1.6306322640
   41      H      -1.3424476937     3.1107294729     1.2422295820
   42      H      -5.9856818884     1.0268426556     0.4659184284
   43      H      -7.3332162540    -0.5224388108    -1.0200073259
   44      H      -6.1727234824     0.1582135786    -2.2020210435
   45      H      -6.2943959720    -2.6576899927    -1.2052559248
   46      H      -5.0778528494    -2.0051888241    -2.3445426428
   47      H      -4.2290725877    -2.7344432670     0.2443362847
   48      H      -2.6013804227     4.2727685780     0.6987960368
   49      H      -1.1085706272     4.0414899485    -0.2936768691
   50      H       3.4654717815    -4.2275253380     0.9276359548
   51      H       3.6204261404    -4.2021125825    -0.8788827775
   52      H       2.1635405389    -3.4847593535    -0.0851761915
   53      H       1.2913619892     0.9004659241     2.0338666362
   54      H       0.2541295562    -0.5115076516     2.3949301010
   55      H       0.0781679335     1.3308129508     0.0117425499
   56      H       0.1741863187    -0.4057645409    -0.4450030067
 ----------------------------------------------------------------

    9   -1510.2439503489      1.90E-09 Convergence criterion met
 Total energy in the final basis set = -1510.24395035
 Final energy is   -1510.24395034891
 **  OPTIMIZATION CONVERGED  **

                    Orbital Energies (a.u.)
 --------------------------------------------------------------

 Alpha MOs
 -- Occupied --
-18.945 -18.920 -18.919 -18.896 -18.895 -18.893 -18.892 -18.884
-18.884 -18.858 -10.109 -10.107 -10.106 -10.091 -10.071 -10.069
-10.067 -10.065 -10.065 -10.058 -10.057 -10.055 -10.044 -10.039
-10.039 -10.032 -10.028 -10.026 -10.019 -10.017  -1.020  -1.013
 -0.997  -0.996  -0.979  -0.967  -0.944  -0.943  -0.929  -0.923
 -0.769  -0.760  -0.729  -0.722  -0.711  -0.703  -0.696  -0.664
 -0.657  -0.607  -0.600  -0.587  -0.552  -0.545  -0.543  -0.536
 -0.521  -0.509  -0.489  -0.478  -0.467  -0.455  -0.450  -0.442
 -0.439  -0.428  -0.422  -0.416  -0.413  -0.406  -0.406  -0.400
 -0.394  -0.388  -0.377  -0.368  -0.363  -0.357  -0.354  -0.351
 -0.342  -0.341  -0.336  -0.330  -0.329  -0.328  -0.323  -0.318
 -0.312  -0.310  -0.305  -0.302  -0.299  -0.295  -0.285  -0.281
 -0.270  -0.260  -0.246  -0.244  -0.235  -0.231  -0.231  -0.183
 -0.176  -0.165  -0.164  -0.160  -0.156  -0.149  -0.145  -0.141
 -0.139

          Ground-State Mulliken Net Atomic Charges

     Atom                 Charge (a.u.)
  ----------------------------------------
      1 O                    -0.219538
      2 C                     0.218562
      3 C                    -0.081604
      4 C                    -0.078361
      5 C                     0.222567
      6 O                    -0.186350
      7 C                    -0.045610
      8 C                    -0.047824
      9 O                    -0.203670
     10 C                     0.225547
     11 C                    -0.084974
     12 C                    -0.079392
     13 C                     0.216204
     14 O                    -0.208432
     15 O                    -0.176516
     16 O                    -0.165422
     17 O                    -0.184932
     18 C                    -0.126053
     19 C                     0.021137
     20 C                    -0.143201
     21 C                    -0.144269
     22 C                     0.023818
     23 O                    -0.193466
     24 H                     0.083332
     25 H                     0.087103
     26 H                     0.077827
     27 H                     0.077804
     28 H                     0.075360
     29 H                     0.079117
     30 H                     0.075150
     31 H                     0.091614
     32 O                    -0.190290
     33 C                    -0.129186
     34 C                     0.025350
     35 C                    -0.143917
     36 C                    -0.144411
     37 C                     0.024158
     38 O                    -0.188447
     39 H                     0.083283
     40 H                     0.085920
     41 H                     0.086831
     42 H                     0.086543
     43 H                     0.077798
     44 H                     0.072850
     45 H                     0.078252
     46 H                     0.072827
     47 H                     0.087763
     48 H                     0.085120
     49 H                     0.084868
     50 H                     0.096629
     51 H                     0.091256
     52 H                     0.098848
     53 H                     0.075456
     54 H                     0.088535
     55 H                     0.092981
     56 H                     0.095456
  ----------------------------------------
  Sum of atomic charges =    -0.000000

                    Cartesian Multipole Moments
 -----------------------------------------------------------------
    Charge (ESU x 10^10)
                 0.0000
    Dipole Moment (Debye)
         X       1.8843      Y       2.1736      Z      -2.9758
       Tot       4.1389
    Quadrupole Moments (Debye-Ang)
        XX    -150.2549     XY       7.4078     YY    -152.9538
        XZ       7.5067     YZ       3.5190     ZZ    -169.4978

 Total job time:  48.12s(wall), 2289.57s(cpu)
        *  Thank you very much for using Q-Chem.  Have a nice day.  *
