 Q-Chem 5.0, Q-Chem, Inc., Pleasanton, CA (2017)
 Q-Chem 5.0.1 for Intel X86 EM64T Linux

User input:
--------------------------------------------------------------
$molecule
0  1
O -3.615338965 1.9294255873 1.527426537
C -3.3449385023 1.6781811089 0.3341148096
C -4.0122460578 0.5945224754 -0.5907745441
C -3.3262659396 -0.8343195713 -0.6125718033
C -2.0917079383 -1.0477651821 0.344230485
O -1.5091589054 0.2076828104 0.7573496463
C -0.0816282533 0.2958825317 0.3769413695
C 0.8714675505 -0.0286157332 1.6016563269
O 1.9011437676 -0.9857308357 1.1470322247
C 3.2317439493 -0.5960720719 1.6143885304
C 3.9809789224 0.4687253036 0.7034947314
C 4.4312089595 -0.1335892726 -0.6978897021
C 3.828551302 -1.5523895687 -1.0014777911
O 3.3390674073 -1.9515305496 -2.0785752192
O -2.466160656 2.4771451779 -0.4797824739
O 3.9682277467 -2.3590630183 0.1712559021
O 3.7188888778 -1.0517439003 2.6694405381
C 3.2563898553 -3.6480056366 0.0098858847
C 3.1636752159 1.7415057801 0.2114238017
C 4.2072222166 2.8340471867 -0.2585429151
C 4.6707642728 2.2434126654 -1.6410138466
C 3.8154250965 0.9217818323 -1.7043894227
O 2.5361452134 1.2957969548 -1.0520183883
H 4.8693448019 0.7830662034 1.2804196745
H 5.5326973426 -0.1905470577 -0.7735231818
H 2.4018968876 2.1249031867 0.9135788634
H 3.7082570754 3.8085917934 -0.3815398215
H 5.0360649459 2.9494157096 0.4576194113
H 4.4128438908 2.9144331306 -2.4756603878
H 5.7524080672 2.0372190447 -1.6742484293
H 3.6258696658 0.510976583 -2.7154277561
O -1.6166275229 -2.1613894195 0.649692817
C -1.8496080652 3.5340309052 0.3513642675
C -5.4665180386 0.2118258919 -0.0745505558
C -6.2655102303 -0.4301492924 -1.2751122717
C -5.5747568687 -1.8412554718 -1.3749830832
C -4.5411465727 -1.7616738933 -0.183895764
O -5.2323802896 -0.9358649213 0.832262057
H -4.0453347858 1.010351602 -1.6135324849
H -2.96944726 -1.0817503069 -1.630632264
H -1.3424476937 3.1107294729 1.242229582
H -5.9856818884 1.0268426556 0.4659184284
H -7.333216254 -0.5224388108 -1.0200073259
H -6.1727234824 0.1582135786 -2.2020210435
H -6.294395972 -2.6576899927 -1.2052559248
H -5.0778528494 -2.0051888241 -2.3445426428
H -4.2290725877 -2.734443267 0.2443362847
H -2.6013804227 4.272768578 0.6987960368
H -1.1085706272 4.0414899485 -0.2936768691
H 3.4654717815 -4.227525338 0.9276359548
H 3.6204261404 -4.2021125825 -0.8788827775
H 2.1635405389 -3.4847593535 -0.0851761915
H 1.2913619892 0.9004659241 2.0338666362
H 0.2541295562 -0.5115076516 2.394930101
H 0.0781679335 1.3308129508 0.0117425499
H 0.1741863187 -0.4057645409 -0.4450030067
$end

$rem
JOBTYPE                   OPT
METHOD                    B3LYP
DFT_D                     d3_op
BASIS                     STO-3G
GEOM_OPT_MAX_CYCLES       100
GEOM_OPT_TOL_GRADIENT     300
GEOM_OPT_TOL_DISPLACEMENT 1200
GEOM_OPT_TOL_ENERGY       100
SYMMETRY                  False
THRESH                    12
SCF_CONVERGENCE           8
MAX_SUB_FILE_NUM          128
MEM_STATIC                400
MEM_TOTAL                 4000
$end
--------------------------------------------------------------

   16   -1510.2439558431      4.65E-09 Convergence criterion met
 Total energy in the final basis set = -1510.24395584
   13   -1510.2477227877      8.35E-09 Convergence criterion met
 Total energy in the final basis set = -1510.24772279
   14   -1510.2521165063      5.23E-09 Convergence criterion met
 Total energy in the final basis set = -1510.25211651
   14   -1510.2562393553      5.37E-09 Convergence criterion met
 Total energy in the final basis set = -1510.25623936
   14   -1510.2600048837      6.91E-09 Convergence criterion met
 Total energy in the final basis set = -1510.26000488
   14   -1510.2629868921      3.95E-09 Convergence criterion met
 Total energy in the final basis set = -1510.26298689
   14   -1510.2654092740      3.40E-09 Convergence criterion met
 Total energy in the final basis set = -1510.26540927
   14   -1510.2674650491      5.55E-09 Convergence criterion met
   12   -1510.2987293078      9.39E-09 Convergence criterion met
 Total energy in the final basis set = -1510.29872931
   12   -1510.2987904095      6.91E-09 Convergence criterion met
 Total energy in the final basis set = -1510.29879041
   11   -1510.2988252995      5.15E-09 Convergence criterion met
 Total energy in the final basis set = -1510.29882530
   11   -1510.2988393923      3.53E-09 Convergence criterion met
 Total energy in the final basis set = -1510.29883939
   11   -1510.2988494363      3.43E-09 Convergence criterion met
 Total energy in the final basis set = -1510.29884944
    9   -1510.2988511665      9.34E-09 Convergence criterion met
 Total energy in the final basis set = -1510.29885117

             Standard Nuclear Orientation (Angstroms)
    I     Atom           X                Y                Z
 ----------------------------------------------------------------
    1      O      -1.7364888625     0.4033271830     1.3807321393
    2      C      -2.8660444348     0.7341806786     0.9388313546
    3      C      -3.8560707975    -0.1292087499     0.0884953935
    4      C      -3.3840367699    -0.3999512544    -1.4039994907
    5      C      -1.9600663605     0.1536914341    -1.7629179143
    6      O      -1.8347100202     1.5024685761    -1.3006196857
    7      C      -0.4330537847     1.9719696819    -1.4699063812
    8      C       0.2472564998     2.1060900787    -0.0595408922
    9      O       1.6429754751     1.6317292440    -0.2128360044
   10      C       2.2493747445     1.4456066294     1.0723150099
   11      C       3.6890854727     0.8768828558     0.8417457838
   12      C       3.7143416578    -0.4102932991    -0.0860677078
   13      C       2.2920844120    -0.8895212530    -0.5556483765
   14      O       1.9075082907    -1.0588908660    -1.7331552008
   15      O      -3.4991056010     1.9789139452     1.2234121430
   16      O       1.5123511265    -1.1522543050     0.6127332054
   17      O       1.6981288343     1.7256090542     2.1581786131
   18      C       0.1569552818    -1.6397232556     0.2487568782
   19      C       4.5788571333     1.8714774458    -0.0253631729
   20      C       6.0879574725     1.4112607247     0.0802756271
   21      C       6.0917095327     0.1549355384    -0.8686305322
   22      C       4.5768672710     0.1055852607    -1.3090719530
   23      O       4.2060622448     1.5371481570    -1.4167884244
   24      H       4.1384310687     0.6781930299     1.8301023444
   25      H       4.2060032496    -1.2523998394     0.4351417159
   26      H       4.3998721412     2.9451726670     0.1782133025
   27      H       6.7591490087     2.2018404157    -0.2913414025
   28      H       6.3728454528     1.1631802123     1.1152253850
   29      H       6.7428780569     0.3114896667    -1.7434446287
   30      H       6.4068085636    -0.7667843592    -0.3540721496
   31      H       4.3610622549    -0.4198002485    -2.2598317679
   32      O      -1.0589220094    -0.4712834281    -2.3651284946
   33      C      -2.6175077021     2.8516860550     2.0349447780
   34      C      -3.9608619837    -1.6212976058     0.6346378228
   35      C      -5.2709301681    -2.2735291773     0.0400371136
   36      C      -4.8333517648    -2.5268258637    -1.4514336321
   37      C      -3.3530936374    -1.9837604197    -1.4308815947
   38      O      -2.8699689189    -2.3267473479    -0.0723320848
   39      H      -4.8344325696     0.3818857634     0.1016272949
   40      H      -4.1148469423     0.0139044250    -2.1234019112
   41      H      -2.0203909308     3.5116813869     1.3739797937
   42      H      -3.8376286300    -1.7179649167     1.7308520045
   43      H      -5.4965358427    -3.2178342979     0.5605144083
   44      H      -6.1437262692    -1.6062941022     0.1221057304
   45      H      -4.8470950072    -3.5999299395    -1.6998068592
   46      H      -5.4633917676    -1.9885117634    -2.1775462050
   47      H      -2.6702066898    -2.3962202054    -2.1990868597
   48      H      -1.9277467427     2.2480582051     2.6579339506
   49      H      -3.2754016698     3.4705188499     2.6731046860
   50      H      -0.6009503334    -0.9866768225     0.7387192523
   51      H       0.0429347134    -2.6811302137     0.6066727948
   52      H       0.0303670731    -1.6026381289    -0.8521311572
   53      H       0.2316920659     3.1592879978     0.2946092069
   54      H      -0.3118433806     1.4789413193     0.6771127515
   55      H      -0.4660038405     2.9417985207    -2.0052205284
   56      H       0.1174333839     1.2191447255    -2.0774374586
 ----------------------------------------------------------------

    9   -1510.2988514243      7.42E-09 Convergence criterion met
 Total energy in the final basis set = -1510.29885142
 Final energy is   -1510.29885142430
 **  OPTIMIZATION CONVERGED  **

                    Orbital Energies (a.u.)
 --------------------------------------------------------------

 Alpha MOs
 -- Occupied --
-18.950 -18.940 -18.922 -18.908 -18.894 -18.889 -18.888 -18.879
-18.864 -18.855 -10.116 -10.107 -10.089 -10.081 -10.069 -10.067
-10.065 -10.063 -10.056 -10.053 -10.048 -10.047 -10.046 -10.028
-10.026 -10.025 -10.024 -10.017 -10.014 -10.012  -1.026  -1.017
 -1.002  -0.987  -0.977  -0.961  -0.948  -0.944  -0.926  -0.915
 -0.771  -0.754  -0.731  -0.718  -0.713  -0.700  -0.691  -0.671
 -0.634  -0.613  -0.594  -0.577  -0.550  -0.542  -0.536  -0.528
 -0.518  -0.505  -0.486  -0.469  -0.462  -0.457  -0.451  -0.442
 -0.436  -0.426  -0.422  -0.419  -0.417  -0.409  -0.399  -0.393
 -0.387  -0.377  -0.372  -0.365  -0.358  -0.356  -0.353  -0.344
 -0.340  -0.336  -0.335  -0.329  -0.324  -0.323  -0.317  -0.314
 -0.309  -0.304  -0.299  -0.296  -0.292  -0.283  -0.277  -0.277
 -0.265  -0.258  -0.253  -0.240  -0.239  -0.226  -0.225  -0.189
 -0.181  -0.173  -0.165  -0.162  -0.151  -0.148  -0.144  -0.136
 -0.134

          Ground-State Mulliken Net Atomic Charges

     Atom                 Charge (a.u.)
  ----------------------------------------
      1 O                    -0.217652
      2 C                     0.224657
      3 C                    -0.079606
      4 C                    -0.078071
      5 C                     0.214369
      6 O                    -0.175923
      7 C                    -0.058282
      8 C                    -0.060629
      9 O                    -0.171639
     10 C                     0.212972
     11 C                    -0.078697
     12 C                    -0.078121
     13 C                     0.212736
     14 O                    -0.216200
     15 O                    -0.162251
     16 O                    -0.179703
     17 O                    -0.214728
     18 C                    -0.155337
     19 C                     0.025514
     20 C                    -0.144058
     21 C                    -0.144040
     22 C                     0.024129
     23 O                    -0.187419
     24 H                     0.083812
     25 H                     0.082333
     26 H                     0.079899
     27 H                     0.076212
     28 H                     0.072813
     29 H                     0.076545
     30 H                     0.072514
     31 H                     0.090037
     32 O                    -0.200604
     33 C                    -0.132392
     34 C                     0.025511
     35 C                    -0.143469
     36 C                    -0.144193
     37 C                     0.024133
     38 O                    -0.187539
     39 H                     0.089141
     40 H                     0.087996
     41 H                     0.088374
     42 H                     0.085151
     43 H                     0.079687
     44 H                     0.074449
     45 H                     0.080096
     46 H                     0.074314
     47 H                     0.094123
     48 H                     0.103598
     49 H                     0.091868
     50 H                     0.102951
     51 H                     0.076504
     52 H                     0.098311
     53 H                     0.075855
     54 H                     0.107979
     55 H                     0.086339
     56 H                     0.115630
  ----------------------------------------
  Sum of atomic charges =     0.000000

                    Cartesian Multipole Moments
 -----------------------------------------------------------------
    Charge (ESU x 10^10)
                 0.0000
    Dipole Moment (Debye)
         X      -2.6973      Y       0.9303      Z       0.6740
       Tot       2.9317
    Quadrupole Moments (Debye-Ang)
        XX    -133.6561     XY       0.5434     YY    -155.0822
        XZ       4.3860     YZ       1.0622     ZZ    -165.6796

 Total job time:  158.87s(wall), 7560.94s(cpu)
        *  Thank you very much for using Q-Chem.  Have a nice day.  *
