 Q-Chem 5.0, Q-Chem, Inc., Pleasanton, CA (2017)
 Q-Chem 5.0.1 for Intel X86 EM64T Linux

User input:
--------------------------------------------------------------
$molecule
0  1
O -4.186005634 2.345793953 1.4751667041
C -4.1859269955 1.7487824389 0.3766069316
C -4.8657488901 0.3711949704 0.0556991843
C -4.0903121141 -0.6846790131 -0.8349754985
C -2.51043851 -0.6658396971 -0.7947159278
O -1.9933620798 0.6626749537 -0.7127760862
C -0.5194114749 0.6623010361 -0.8750940395
C 0.2250086298 0.2736473896 0.45135381
O 1.6402323598 0.0473761164 0.0663922563
C 2.4896391028 0.0889478339 1.218975421
C 3.8677890892 -0.6039930116 0.9279799583
C 4.2576171689 -1.0539367781 -0.5317368708
C 3.9430589139 -0.05589269 -1.7148680147
O 4.3515257437 -0.2006233478 -2.890407656
O -3.832954651 2.3688444791 -0.8671260962
O 3.3814516937 1.1632811372 -1.2233238359
O 2.1444132656 0.5555708276 2.3268254983
C 3.2020149492 2.1328136163 -2.3271383791
C 5.1997954155 0.1276357082 1.4148289157
C 6.1052993133 -0.9981776838 2.0433168049
C 6.4150462238 -1.8525313256 0.7554134079
C 5.8431089167 -0.923425108 -0.3893296294
O 5.936446523 0.4516807543 0.1700474326
H 3.7871322761 -1.5393305042 1.5165859204
H 3.9053829752 -2.0706005724 -0.7800952666
H 5.0409955258 1.0325909825 2.0327403587
H 7.0252430779 -0.5610259074 2.4643940919
H 5.5908695145 -1.5736771123 2.8296254903
H 7.4964151004 -2.0110094392 0.619428742
H 5.9165574216 -2.8353650135 0.770521063
H 6.3780598947 -0.9858468059 -1.3571529307
O -1.7864301248 -1.6820031085 -0.8907507365
C -3.2415854932 3.701616875 -0.6177702775
C -5.2683299396 -0.5079358218 1.3155309522
C -6.5998030712 -1.2646894792 0.9377795684
C -6.0618702279 -2.2600181763 -0.1581993727
C -4.5040912227 -2.014115239 -0.0709202432
O -4.2734148512 -1.606322946 1.3389786323
H -5.7856269987 0.6467382944 -0.4954461561
H -4.420426677 -0.6514098018 -1.8897942905
H -2.2686376278 3.619167011 -0.091346994
H -5.2722521846 0.0447824279 2.2754337759
H -6.9936819402 -1.8067379925 1.812563156
H -7.3808508729 -0.5874417493 0.5565868707
H -6.3038620114 -3.3061167921 0.0866200086
H -6.4547974701 -2.0344474676 -1.1628282428
H -3.8646940261 -2.8802942601 -0.33084216
H -3.9151034585 4.3437958007 -0.014093638
H -3.0834811461 4.1575410861 -1.612415176
H 2.1195606196 2.2692354429 -2.5237793589
H 3.7050889189 1.7506001022 -3.2385060452
H 3.6434149681 3.0986476212 -2.0153194212
H 0.1404589219 1.0728488934 1.2179089272
H -0.2103989461 -0.6629092241 0.8643206014
H -0.2513753925 1.6935363691 -1.1799158863
H -0.214007104 -0.0502412184 -1.6713569945
$end

$rem
JOBTYPE                   OPT
METHOD                    B3LYP
DFT_D                     d3_op
BASIS                     STO-3G
GEOM_OPT_MAX_CYCLES       100
GEOM_OPT_TOL_GRADIENT     300
GEOM_OPT_TOL_DISPLACEMENT 1200
GEOM_OPT_TOL_ENERGY       100
SYMMETRY                  False
THRESH                    12
SCF_CONVERGENCE           8
MAX_SUB_FILE_NUM          128
MEM_STATIC                400
MEM_TOTAL                 4000
$end
--------------------------------------------------------------

   16   -1510.2554654968      5.74E-09 Convergence criterion met
 Total energy in the final basis set = -1510.25546550
   14   -1510.2601627647      4.26E-09 Convergence criterion met
 Total energy in the final basis set = -1510.26016276
   14   -1510.2637054710      3.83E-09 Convergence criterion met
 Total energy in the final basis set = -1510.26370547
   14   -1510.2673971831      2.72E-09 Convergence criterion met
 Total energy in the final basis set = -1510.26739718
   14   -1510.2706908836      2.67E-09 Convergence criterion met
 Total energy in the final basis set = -1510.27069088
   14   -1510.2736436015      4.37E-09 Convergence criterion met
 Total energy in the final basis set = -1510.27364360
   13   -1510.2762969645      9.82E-09 Convergence criterion met
 Total energy in the final basis set = -1510.27629696
   13   -1510.2786479001      4.73E-09 Convergence criterion met
   10   -1510.3015691447      6.68E-09 Convergence criterion met
 Total energy in the final basis set = -1510.30156914
    9   -1510.3015723176      7.68E-09 Convergence criterion met
 Total energy in the final basis set = -1510.30157232
    9   -1510.3015708663      9.49E-09 Convergence criterion met
 Total energy in the final basis set = -1510.30157087
    9   -1510.3015722795      3.20E-09 Convergence criterion met
 Total energy in the final basis set = -1510.30157228
    9   -1510.3015704297      3.33E-09 Convergence criterion met
 Total energy in the final basis set = -1510.30157043
    9   -1510.3015693897      2.00E-09 Convergence criterion met
 Total energy in the final basis set = -1510.30156939

             Standard Nuclear Orientation (Angstroms)
    I     Atom           X                Y                Z
 ----------------------------------------------------------------
    1      O      -1.4282831639     0.2467394321     0.8555322234
    2      C      -2.2267738024     1.0944116261     0.3855325817
    3      C      -3.3786969305     0.8368821622    -0.6492042538
    4      C      -3.6305215237    -0.6877297930    -0.9885322239
    5      C      -2.6657147311    -1.7123273741    -0.2908705893
    6      O      -1.5804756455    -1.9745628044    -1.1956719616
    7      C      -0.6829509060    -3.0086698255    -0.6285386424
    8      C       0.3352838762    -2.4021201653     0.3924401851
    9      O       1.2950010228    -1.5279488383    -0.3255205114
   10      C       2.6343587821    -1.8163433461     0.0993789254
   11      C       3.6136584853    -0.8611267761    -0.6712285928
   12      C       3.3376221304     0.6831715984    -0.4419018060
   13      C       2.1440995998     0.9896056566     0.5216185035
   14      O       1.2653299922     1.8653592258     0.3357387133
   15      O      -2.2479409710     2.4751656529     0.7069717399
   16      O       2.2394915991     0.1483697583     1.6635025325
   17      O       2.9459522879    -2.7329167382     0.8905943458
   18      C       1.0683076066     0.3280135806     2.5587760617
   19      C       5.0909255155    -0.9967690215    -0.1166280720
   20      C       6.0815961510    -0.3677958831    -1.1715329469
   21      C       5.8080594258     1.1685263141    -0.9642461455
   22      C       4.7285366677     1.1342962376     0.1895167520
   23      O       5.1254654384    -0.0312964263     1.0078915445
   24      H       3.5553529674    -1.1075816114    -1.7476822693
   25      H       3.1361273711     1.2061737590    -1.3929298777
   26      H       5.3407197114    -2.0144035382     0.2416139495
   27      H       7.1231794701    -0.6289856826    -0.9255250878
   28      H       5.8660791206    -0.7050701963    -2.1981248301
   29      H       6.7130431389     1.6981402807    -0.6265973468
   30      H       5.4289277708     1.6616710308    -1.8736035781
   31      H       4.6755226785     2.0486205815     0.8119547993
   32      O      -2.8498811586    -2.3237509580     0.7835963364
   33      C      -1.1556778186     2.8271639416     1.6497835851
   34      C      -4.7917441067     1.2503058875    -0.0495425063
   35      C      -5.8361365489     1.3345897698    -1.2312774552
   36      C      -6.0930739172    -0.1908246896    -1.5206531837
   37      C      -5.1234992854    -0.8646669972    -0.4725819111
   38      O      -5.2000535465     0.0400103494     0.6980450593
   39      H      -3.1479630177     1.4170821292    -1.5615572703
   40      H      -3.5558314481    -0.8518123767    -2.0780666631
   41      H      -0.1663145818     2.5007279816     1.2421315713
   42      H      -4.7538377938     2.1335574653     0.6169593019
   43      H      -6.7540792311     1.8436181015    -0.8971424251
   44      H      -5.4318565056     1.8724294323    -2.1037699392
   45      H      -7.1381042326    -0.4706128976    -1.3121809921
   46      H      -5.8511794881    -0.4767634628    -2.5568475901
   47      H      -5.3824087087    -1.8993259857    -0.1754902955
   48      H      -1.3304136545     2.3652958209     2.6424141119
   49      H      -1.1945229690     3.9269593575     1.7485727447
   50      H       0.1111861637     0.3174779762     1.9832269434
   51      H       1.1522208363     1.2777297277     3.1249063656
   52      H       1.1034054814    -0.5195332198     3.2670795858
   53      H      -0.2196068320    -1.7943319856     1.1364685507
   54      H       0.9057582677    -3.2019025646     0.9141710367
   55      H      -0.1468690639    -3.4542513224    -1.4907285107
   56      H      -1.2779698807    -3.7913239046    -0.1092578573
 ----------------------------------------------------------------

    9   -1510.3015686982      1.61E-09 Convergence criterion met
 Total energy in the final basis set = -1510.30156870
 Final energy is   -1510.30156869817
 **  OPTIMIZATION CONVERGED  **

                    Orbital Energies (a.u.)
 --------------------------------------------------------------

 Alpha MOs
 -- Occupied --
-18.940 -18.939 -18.923 -18.923 -18.888 -18.886 -18.885 -18.881
-18.870 -18.863 -10.108 -10.107 -10.097 -10.092 -10.066 -10.062
-10.059 -10.057 -10.057 -10.057 -10.048 -10.044 -10.039 -10.039
-10.037 -10.033 -10.021 -10.020 -10.020 -10.019  -1.017  -1.015
 -1.005  -0.999  -0.970  -0.969  -0.941  -0.940  -0.933  -0.925
 -0.764  -0.761  -0.726  -0.722  -0.711  -0.705  -0.694  -0.661
 -0.651  -0.614  -0.596  -0.578  -0.547  -0.543  -0.538  -0.533
 -0.512  -0.511  -0.483  -0.469  -0.468  -0.451  -0.450  -0.441
 -0.434  -0.432  -0.426  -0.425  -0.413  -0.410  -0.404  -0.399
 -0.381  -0.376  -0.373  -0.367  -0.361  -0.359  -0.353  -0.350
 -0.339  -0.333  -0.332  -0.331  -0.325  -0.324  -0.323  -0.311
 -0.309  -0.305  -0.305  -0.299  -0.296  -0.293  -0.277  -0.274
 -0.271  -0.257  -0.252  -0.242  -0.235  -0.234  -0.233  -0.184
 -0.180  -0.177  -0.161  -0.159  -0.156  -0.150  -0.144  -0.144
 -0.143

          Ground-State Mulliken Net Atomic Charges

     Atom                 Charge (a.u.)
  ----------------------------------------
      1 O                    -0.214870
      2 C                     0.223183
      3 C                    -0.076882
      4 C                    -0.081675
      5 C                     0.213258
      6 O                    -0.173726
      7 C                    -0.049163
      8 C                    -0.059419
      9 O                    -0.178105
     10 C                     0.216967
     11 C                    -0.077865
     12 C                    -0.078244
     13 C                     0.223351
     14 O                    -0.218103
     15 O                    -0.168284
     16 O                    -0.163267
     17 O                    -0.215705
     18 C                    -0.144589
     19 C                     0.024730
     20 C                    -0.144065
     21 C                    -0.143731
     22 C                     0.025816
     23 O                    -0.185943
     24 H                     0.084245
     25 H                     0.086153
     26 H                     0.091193
     27 H                     0.078306
     28 H                     0.073112
     29 H                     0.078168
     30 H                     0.073789
     31 H                     0.082219
     32 O                    -0.218416
     33 C                    -0.149046
     34 C                     0.024612
     35 C                    -0.143991
     36 C                    -0.143991
     37 C                     0.025493
     38 O                    -0.189088
     39 H                     0.087741
     40 H                     0.084703
     41 H                     0.119818
     42 H                     0.088415
     43 H                     0.078106
     44 H                     0.073687
     45 H                     0.077834
     46 H                     0.073214
     47 H                     0.086618
     48 H                     0.077886
     49 H                     0.083909
     50 H                     0.115168
     51 H                     0.078758
     52 H                     0.089166
     53 H                     0.099315
     54 H                     0.099002
     55 H                     0.087246
     56 H                     0.092989
  ----------------------------------------
  Sum of atomic charges =    -0.000000

                    Cartesian Multipole Moments
 -----------------------------------------------------------------
    Charge (ESU x 10^10)
                -0.0000
    Dipole Moment (Debye)
         X       0.1448      Y       1.4577      Z      -3.0059
       Tot       3.3438
    Quadrupole Moments (Debye-Ang)
        XX    -154.8308     XY       1.5589     YY    -157.7233
        XZ      -0.3003     YZ       7.0542     ZZ    -157.6954

 Total job time:  237.93s(wall), 11354.36s(cpu)
        *  Thank you very much for using Q-Chem.  Have a nice day.  *
