 Q-Chem 5.0, Q-Chem, Inc., Pleasanton, CA (2017)
 Q-Chem 5.0.1 for Intel X86 EM64T Linux

User input:
--------------------------------------------------------------
$molecule
0  1
O -3.94934 -3.66094 2.70899
C -3.26408 -4.56952 2.26188
C -3.36658 -6.02376 2.66595
C -2.04986 -6.79228 2.86466
C -0.77767 -5.97575 2.81083
O -0.88975 -5.0044 1.85724
C 0.33786 -4.30918 1.61457
C 0.56174 -3.24792 2.68682
O 1.90093 -2.73662 2.59728
C 2.11652 -1.55352 3.22412
C 3.57855 -1.28863 3.49424
C 4.54839 -2.28264 2.83878
C 3.96269 -3.15461 1.74638
O 4.60299 -3.87789 0.99708
O -2.91984 -4.40153 0.94815
O 3.25923 -2.33138 0.87659
O 1.22709 -0.82988 3.65388
C 2.75655 -2.62549 -0.38317
C 4.10645 0.04692 2.93045
C 5.3309 0.48518 3.73322
C 6.34926 -0.54386 3.27932
C 5.53695 -1.27708 2.20425
O 4.68199 -0.28285 1.69193
H 3.68527 -1.27139 4.60246
H 5.04393 -2.96119 3.56687
H 3.34098 0.85303 2.91693
H 5.63349 1.48223 3.33955
H 5.18768 0.55712 4.83283
H 7.21319 -0.00645 2.82919
H 6.70196 -1.24399 4.06739
H 6.21313 -1.76289 1.46692
O 0.28691 -6.37222 3.27357
C -2.96386 -3.20453 0.26009
C -3.98981 -6.1766 4.07087
C -4.56893 -7.58096 4.2416
C -3.30032 -8.39173 4.37514
C -2.2529 -7.27669 4.31645
O -2.88475 -6.18571 4.93656
H -4.03635 -6.51419 1.92401
H -1.92059 -7.65303 2.17209
H -2.29768 -2.46104 0.74746
H -4.77765 -5.42441 4.29348
H -5.10913 -7.60852 5.21507
H -5.2564 -7.90117 3.42932
H -3.29067 -8.865 5.38253
H -3.14313 -9.16502 3.5924
H -1.31104 -7.62596 4.79385
H -4.00363 -2.81525 0.22813
H -2.61363 -3.37032 -0.77917
H 1.68199 -2.36036 -0.41651
H 2.86559 -3.69959 -0.64499
H 3.28442 -2.00732 -1.13779
H -0.21272 -2.46164 2.53641
H 0.43828 -3.68443 3.70144
H 0.26916 -3.80219 0.63263
H 1.19819 -5.01341 1.54078
$end

$opt
CONSTRAINT
tors           1           2           3           4    -138.072
tors           3           4           5           6     -37.547
tors           4           5           6           7    -171.768
tors           5           6           7           8     -80.422
tors           6           7           8           9    +168.755
tors           7           8           9          10    +162.345
tors           8           9          10          11    +161.053
tors           9          10          11          12      +8.586
tors          11          12          13          14    +170.195
ENDCONSTRAINT
$end

$rem
JOBTYPE                   OPT
METHOD                    B3LYP
DFT_D                     d3_op
BASIS                     STO-3G
GEOM_OPT_MAX_CYCLES       100
GEOM_OPT_TOL_GRADIENT     300
GEOM_OPT_TOL_DISPLACEMENT 1200
GEOM_OPT_TOL_ENERGY       100
SYMMETRY                  False
THRESH                    12
SCF_CONVERGENCE           8
MAX_SUB_FILE_NUM          128
MEM_STATIC                400
MEM_TOTAL                 4000
$end
--------------------------------------------------------------

   16   -1510.0668614553      4.70E-09 Convergence criterion met
 Total energy in the final basis set = -1510.06686146
   15   -1510.1452608917      2.26E-09 Convergence criterion met
 Total energy in the final basis set = -1510.14526089
   15   -1510.1884526878      2.29E-09 Convergence criterion met
 Total energy in the final basis set = -1510.18845269
   15   -1510.2159049597      2.06E-09 Convergence criterion met
 Total energy in the final basis set = -1510.21590496
   14   -1510.2300267591      8.94E-09 Convergence criterion met
 Total energy in the final basis set = -1510.23002676
   14   -1510.2392774502      4.52E-09 Convergence criterion met
 Total energy in the final basis set = -1510.23927745
   13   -1510.2452286703      9.75E-09 Convergence criterion met
 Total energy in the final basis set = -1510.24522867
   13   -1510.2492358752      9.41E-09 Convergence criterion met
   11   -1510.2553528680      2.88E-09 Convergence criterion met
 Total energy in the final basis set = -1510.25535287
   11   -1510.2553562245      1.94E-09 Convergence criterion met
 Total energy in the final basis set = -1510.25535622
   11   -1510.2553585325      1.46E-09 Convergence criterion met
 Total energy in the final basis set = -1510.25535853
   10   -1510.2553597545      9.92E-09 Convergence criterion met
 Total energy in the final basis set = -1510.25535975
    9   -1510.2553612779      6.62E-09 Convergence criterion met
 Total energy in the final basis set = -1510.25536128
    9   -1510.2553626687      5.60E-09 Convergence criterion met
 Total energy in the final basis set = -1510.25536267

             Standard Nuclear Orientation (Angstroms)
    I     Atom           X                Y                Z
 ----------------------------------------------------------------
    1      O      -4.1860056340     2.3457939530     1.4751667041
    2      C      -4.1859269955     1.7487824389     0.3766069316
    3      C      -4.8657488901     0.3711949704     0.0556991843
    4      C      -4.0903121141    -0.6846790131    -0.8349754985
    5      C      -2.5104385100    -0.6658396971    -0.7947159278
    6      O      -1.9933620798     0.6626749537    -0.7127760862
    7      C      -0.5194114749     0.6623010361    -0.8750940395
    8      C       0.2250086298     0.2736473896     0.4513538100
    9      O       1.6402323598     0.0473761164     0.0663922563
   10      C       2.4896391028     0.0889478339     1.2189754210
   11      C       3.8677890892    -0.6039930116     0.9279799583
   12      C       4.2576171689    -1.0539367781    -0.5317368708
   13      C       3.9430589139    -0.0558926900    -1.7148680147
   14      O       4.3515257437    -0.2006233478    -2.8904076560
   15      O      -3.8329546510     2.3688444791    -0.8671260962
   16      O       3.3814516937     1.1632811372    -1.2233238359
   17      O       2.1444132656     0.5555708276     2.3268254983
   18      C       3.2020149492     2.1328136163    -2.3271383791
   19      C       5.1997954155     0.1276357082     1.4148289157
   20      C       6.1052993133    -0.9981776838     2.0433168049
   21      C       6.4150462238    -1.8525313256     0.7554134079
   22      C       5.8431089167    -0.9234251080    -0.3893296294
   23      O       5.9364465230     0.4516807543     0.1700474326
   24      H       3.7871322761    -1.5393305042     1.5165859204
   25      H       3.9053829752    -2.0706005724    -0.7800952666
   26      H       5.0409955258     1.0325909825     2.0327403587
   27      H       7.0252430779    -0.5610259074     2.4643940919
   28      H       5.5908695145    -1.5736771123     2.8296254903
   29      H       7.4964151004    -2.0110094392     0.6194287420
   30      H       5.9165574216    -2.8353650135     0.7705210630
   31      H       6.3780598947    -0.9858468059    -1.3571529307
   32      O      -1.7864301248    -1.6820031085    -0.8907507365
   33      C      -3.2415854932     3.7016168750    -0.6177702775
   34      C      -5.2683299396    -0.5079358218     1.3155309522
   35      C      -6.5998030712    -1.2646894792     0.9377795684
   36      C      -6.0618702279    -2.2600181763    -0.1581993727
   37      C      -4.5040912227    -2.0141152390    -0.0709202432
   38      O      -4.2734148512    -1.6063229460     1.3389786323
   39      H      -5.7856269987     0.6467382944    -0.4954461561
   40      H      -4.4204266770    -0.6514098018    -1.8897942905
   41      H      -2.2686376278     3.6191670110    -0.0913469940
   42      H      -5.2722521846     0.0447824279     2.2754337759
   43      H      -6.9936819402    -1.8067379925     1.8125631560
   44      H      -7.3808508729    -0.5874417493     0.5565868707
   45      H      -6.3038620114    -3.3061167921     0.0866200086
   46      H      -6.4547974701    -2.0344474676    -1.1628282428
   47      H      -3.8646940261    -2.8802942601    -0.3308421600
   48      H      -3.9151034585     4.3437958007    -0.0140936380
   49      H      -3.0834811461     4.1575410861    -1.6124151760
   50      H       2.1195606196     2.2692354429    -2.5237793589
   51      H       3.7050889189     1.7506001022    -3.2385060452
   52      H       3.6434149681     3.0986476212    -2.0153194212
   53      H       0.1404589219     1.0728488934     1.2179089272
   54      H      -0.2103989461    -0.6629092241     0.8643206014
   55      H      -0.2513753925     1.6935363691    -1.1799158863
   56      H      -0.2140071040    -0.0502412184    -1.6713569945
 ----------------------------------------------------------------

    9   -1510.2553635199      3.44E-09 Convergence criterion met
 Total energy in the final basis set = -1510.25536352
 Final energy is   -1510.25536351990
 **  OPTIMIZATION CONVERGED  **

                    Orbital Energies (a.u.)
 --------------------------------------------------------------

 Alpha MOs
 -- Occupied --
-18.942 -18.932 -18.931 -18.931 -18.886 -18.885 -18.878 -18.873
-18.872 -18.867 -10.104 -10.101 -10.100 -10.096 -10.078 -10.070
-10.063 -10.059 -10.059 -10.058 -10.057 -10.055 -10.042 -10.039
-10.037 -10.036 -10.021 -10.021 -10.020 -10.019  -1.020  -1.012
 -1.007  -1.004  -0.970  -0.969  -0.942  -0.936  -0.933  -0.929
 -0.764  -0.762  -0.728  -0.723  -0.710  -0.703  -0.697  -0.661
 -0.657  -0.616  -0.599  -0.587  -0.545  -0.544  -0.538  -0.536
 -0.513  -0.509  -0.490  -0.479  -0.464  -0.458  -0.453  -0.440
 -0.436  -0.430  -0.427  -0.414  -0.410  -0.408  -0.406  -0.398
 -0.394  -0.383  -0.374  -0.371  -0.363  -0.360  -0.353  -0.346
 -0.344  -0.339  -0.337  -0.330  -0.329  -0.324  -0.314  -0.313
 -0.311  -0.308  -0.306  -0.300  -0.296  -0.292  -0.290  -0.273
 -0.270  -0.253  -0.249  -0.246  -0.240  -0.234  -0.233  -0.186
 -0.177  -0.172  -0.163  -0.158  -0.155  -0.150  -0.147  -0.144
 -0.144

          Ground-State Mulliken Net Atomic Charges

     Atom                 Charge (a.u.)
  ----------------------------------------
      1 O                    -0.214877
      2 C                     0.214016
      3 C                    -0.080942
      4 C                    -0.074930
      5 C                     0.211521
      6 O                    -0.167261
      7 C                    -0.046255
      8 C                    -0.051789
      9 O                    -0.167716
     10 C                     0.214436
     11 C                    -0.079826
     12 C                    -0.073943
     13 C                     0.215737
     14 O                    -0.221818
     15 O                    -0.166403
     16 O                    -0.162569
     17 O                    -0.215857
     18 C                    -0.134591
     19 C                     0.025529
     20 C                    -0.140449
     21 C                    -0.146398
     22 C                     0.022935
     23 O                    -0.191804
     24 H                     0.083370
     25 H                     0.086897
     26 H                     0.088409
     27 H                     0.078011
     28 H                     0.074733
     29 H                     0.078991
     30 H                     0.073943
     31 H                     0.086950
     32 O                    -0.215579
     33 C                    -0.127261
     34 C                     0.021977
     35 C                    -0.141497
     36 C                    -0.146106
     37 C                     0.022842
     38 O                    -0.192900
     39 H                     0.084036
     40 H                     0.086947
     41 H                     0.086263
     42 H                     0.090474
     43 H                     0.078262
     44 H                     0.072928
     45 H                     0.078750
     46 H                     0.072987
     47 H                     0.090277
     48 H                     0.089591
     49 H                     0.088420
     50 H                     0.079924
     51 H                     0.102702
     52 H                     0.087532
     53 H                     0.095401
     54 H                     0.090463
     55 H                     0.089180
     56 H                     0.096336
  ----------------------------------------
  Sum of atomic charges =     0.000000

                    Cartesian Multipole Moments
 -----------------------------------------------------------------
    Charge (ESU x 10^10)
                 0.0000
    Dipole Moment (Debye)
         X      -1.5136      Y      -0.1095      Z      -1.3846
       Tot       2.0543
    Quadrupole Moments (Debye-Ang)
        XX    -147.5931     XY      -4.7172     YY    -154.2132
        XZ      12.3807     YZ      -6.8511     ZZ    -168.2340

 Total job time:  77.35s(wall), 3677.09s(cpu)
        *  Thank you very much for using Q-Chem.  Have a nice day.  *
