 Q-Chem 5.0, Q-Chem, Inc., Pleasanton, CA (2017)
 Q-Chem 5.0.1 for Intel X86 EM64T Linux

User input:
--------------------------------------------------------------
$molecule
0  1
O -3.9171340963 1.5203900515 1.8105218415
C -4.0390995071 1.40820709 0.5717255451
C -4.8196854426 0.3024240619 -0.2195941049
C -3.9184978828 -0.8786688146 -0.7940151112
C -2.4307365203 -0.8793400904 -0.2765658401
O -1.8176384296 0.3188227306 -0.7526787926
C -0.3520462042 0.4417460139 -0.5433844301
C 0.5072419937 -0.8697970838 -0.5056713795
O 1.9030101329 -0.3905111928 -0.3283933534
C 2.7936451311 -1.4986926294 -0.1745583507
C 4.2775750172 -1.074687353 -0.4640095744
C 4.6351921757 0.4706979987 -0.5107746146
C 3.5001528698 1.4748118187 -0.095167565
O 3.15164222 1.7992645163 1.0596451334
O -3.5507458921 2.3692782933 -0.3726524591
O 2.9924312413 2.091226692 -1.2911051802
O 2.4182721122 -2.6625493549 0.0851351433
C 2.0306505432 3.1591864169 -0.9390898251
C 5.2657350005 -1.5895306648 0.6712392718
C 6.7160842573 -1.6831572963 0.0554373748
C 7.0955457093 -0.1596418295 -0.0486678549
C 5.8072790245 0.5209788885 0.5631562013
O 5.3566999411 -0.4388823599 1.5966010146
H 4.536717501 -1.5435710289 -1.4321941468
H 4.9818644762 0.7553372431 -1.5197245427
H 4.9085651231 -2.4955101356 1.198716634
H 7.390709696 -2.2231813399 0.738719646
H 6.7207361454 -2.1928167265 -0.9211491392
H 7.9821459298 0.0794196739 0.5598423498
H 7.2812626621 0.1626657054 -1.0856717045
H 5.9681679397 1.5203161256 1.0115417705
O -1.8965722589 -1.760209276 0.4307643422
C -2.7699559159 3.4134912674 0.3276971584
C -5.8330440494 -0.5101789687 0.6933295717
C -6.9151945039 -1.1661755539 -0.2498814734
C -6.0660924423 -2.3012777324 -0.9347455863
C -4.6778585195 -2.1354369122 -0.1998442491
O -5.0440353465 -1.6734176394 1.1596499748
H -5.3445124429 0.803848286 -1.0528683545
H -3.9095898897 -0.863495347 -1.8991688887
H -1.8627092122 2.9899640008 0.8052346152
H -6.2259797478 0.0595140667 1.5575536208
H -7.739130286 -1.585981054 0.3489830323
H -7.3348985338 -0.4494407893 -0.973945706
H -6.4894116693 -3.299117721 -0.7398510515
H -5.9750758272 -2.1628917804 -2.0240905831
H -4.053155082 -3.0475502085 -0.1385831951
H -3.3714996323 3.922499481 1.1083669061
H -2.4710011908 4.1438835353 -0.4464296987
H 1.4877420975 3.4111603231 -1.868852176
H 2.5551321651 4.063519288 -0.5662319883
H 1.3144914424 2.8298521191 -0.1607835955
H 0.1785722052 -1.5246697158 0.3276881432
H 0.41144451 -1.4380454529 -1.4564011999
H -0.1754936983 0.9884532325 0.4106880603
H -9.64448e-05 1.0855811977 -1.3755193983
$end

$rem
JOBTYPE                   OPT
METHOD                    B3LYP
DFT_D                     d3_op
BASIS                     STO-3G
GEOM_OPT_MAX_CYCLES       100
GEOM_OPT_TOL_GRADIENT     300
GEOM_OPT_TOL_DISPLACEMENT 1200
GEOM_OPT_TOL_ENERGY       100
SYMMETRY                  False
THRESH                    12
SCF_CONVERGENCE           8
MAX_SUB_FILE_NUM          128
MEM_STATIC                400
MEM_TOTAL                 4000
$end
--------------------------------------------------------------

   16   -1510.2704890659      5.46E-09 Convergence criterion met
 Total energy in the final basis set = -1510.27048907
   15   -1510.2735008788      3.11E-09 Convergence criterion met
 Total energy in the final basis set = -1510.27350088
   14   -1510.2759302921      8.89E-09 Convergence criterion met
 Total energy in the final basis set = -1510.27593029
   14   -1510.2778945221      6.23E-09 Convergence criterion met
 Total energy in the final basis set = -1510.27789452
   13   -1510.2796117782      8.50E-09 Convergence criterion met
 Total energy in the final basis set = -1510.27961178
   13   -1510.2808408382      7.38E-09 Convergence criterion met
 Total energy in the final basis set = -1510.28084084
   14   -1510.2817914082      2.45E-09 Convergence criterion met
 Total energy in the final basis set = -1510.28179141
   12   -1510.2825726033      6.01E-09 Convergence criterion met
   11   -1510.2912899136      5.41E-09 Convergence criterion met
 Total energy in the final basis set = -1510.29128991
   11   -1510.2912998677      2.52E-09 Convergence criterion met
 Total energy in the final basis set = -1510.29129987
   10   -1510.2913045192      9.57E-09 Convergence criterion met
 Total energy in the final basis set = -1510.29130452
   10   -1510.2913067618      6.24E-09 Convergence criterion met
 Total energy in the final basis set = -1510.29130676
   11   -1510.2913091506      2.62E-09 Convergence criterion met
 Total energy in the final basis set = -1510.29130915
    9   -1510.2913131905      8.41E-09 Convergence criterion met
 Total energy in the final basis set = -1510.29131319

             Standard Nuclear Orientation (Angstroms)
    I     Atom           X                Y                Z
 ----------------------------------------------------------------
    1      O      -1.7307998249     1.3411972096     0.2933062155
    2      C      -2.7855859782     1.4676299383    -0.3713240443
    3      C      -4.0271672068     0.5100869022    -0.3680576294
    4      C      -3.6308273219    -1.0057488585    -0.6326710120
    5      C      -2.0901922314    -1.1740001590    -0.8829849766
    6      O      -1.7633715718    -0.3903873863    -2.0421799439
    7      C      -0.3075668735    -0.1258698953    -2.0962725186
    8      C       0.5973201866    -1.3348350980    -2.5391116877
    9      O       1.9959302392    -0.8842344993    -2.3315635634
   10      C       2.5635769355    -1.5307454612    -1.1763593691
   11      C       3.9208044504    -0.8035355892    -0.8557623505
   12      C       3.7665367150     0.5643246953    -0.0685725003
   13      C       2.2886492053     0.8847455283     0.3378945502
   14      O       1.3178561862     0.0913857788     0.3060294870
   15      O      -3.0488168877     2.5562762912    -1.2601772557
   16      O       2.2127180885     2.2338721306     0.7836225888
   17      O       2.1005508968    -2.5574905947    -0.6373876787
   18      C       0.8629189139     2.5428210106     1.3244302299
   19      C       4.8019578968    -1.6417868024     0.1610646108
   20      C       6.2892857732    -1.1192137306     0.0774209488
   21      C       6.1649683518     0.2621814028     0.8218843787
   22      C       4.6379872433     0.2551132562     1.2282823638
   23      O       4.3471545742    -1.1707460537     1.4904540705
   24      H       4.4477354394    -0.6362906607    -1.8124026897
   25      H       4.1759415095     1.4200111394    -0.6342762075
   26      H       4.6686336644    -2.7376733531     0.0765608000
   27      H       6.9684610853    -1.8038661185     0.6099251372
   28      H       6.6368595086    -1.0132890521    -0.9626227773
   29      H       6.8008022637     0.2962396787     1.7206861150
   30      H       6.4179102197     1.1188918343     0.1770493467
   31      H       4.3799047496     0.8772171395     2.1074534298
   32      O      -1.2766076691    -1.8365864704    -0.2083187436
   33      C      -1.8877268715     3.4757822686    -1.3001008347
   34      C      -4.6615465812     0.3892407064     1.0862477327
   35      C      -6.0724581062    -0.3127855725     0.9548110940
   36      C      -5.6492542772    -1.8118929153     0.7260768445
   37      C      -4.0768219135    -1.6847469623     0.7255666658
   38      O      -3.8161948292    -0.6338144639     1.7385089195
   39      H      -4.7557653718     0.8820473610    -1.1092553087
   40      H      -4.1833643627    -1.4081041549    -1.5010746979
   41      H      -0.9657894746     2.9528797970    -1.6256392814
   42      H      -4.6552711957     1.3293662680     1.6711845149
   43      H      -6.6504077555    -0.1924590387     1.8850129413
   44      H      -6.6608238415     0.0964732629     0.1180272135
   45      H      -5.9836176863    -2.4555577016     1.5551574969
   46      H      -6.0349360168    -2.2240283912    -0.2200761584
   47      H      -3.5137432896    -2.6054621654     0.9735226904
   48      H      -1.6994023081     3.9400240213    -0.3105049652
   49      H      -2.1460316677     4.2616788819    -2.0332130249
   50      H       0.7642642252     3.6431838516     1.2822741324
   51      H       0.7965905811     2.2147609745     2.3817714674
   52      H       0.0360383126     2.0579301189     0.7557062210
   53      H       0.3972928825    -2.2210542756    -1.8991463238
   54      H       0.4619078090    -1.5875493657    -3.6102971805
   55      H       0.0620286900     0.1856017973    -1.0899940713
   56      H      -0.1911464818     0.7098990234    -2.8150447917
 ----------------------------------------------------------------

    9   -1510.2913141589      7.37E-09 Convergence criterion met
 Total energy in the final basis set = -1510.29131416
 Final energy is   -1510.29131415888
 **  OPTIMIZATION CONVERGED  **

                    Orbital Energies (a.u.)
 --------------------------------------------------------------

 Alpha MOs
 -- Occupied --
-18.943 -18.937 -18.921 -18.911 -18.886 -18.884 -18.882 -18.880
-18.876 -18.863 -10.106 -10.102 -10.093 -10.088 -10.071 -10.060
-10.058 -10.055 -10.053 -10.051 -10.049 -10.048 -10.038 -10.037
-10.034 -10.030 -10.020 -10.018 -10.018 -10.016  -1.018  -1.013
 -1.002  -0.994  -0.968  -0.967  -0.941  -0.937  -0.931  -0.922
 -0.762  -0.759  -0.724  -0.720  -0.707  -0.703  -0.686  -0.669
 -0.657  -0.610  -0.593  -0.577  -0.545  -0.541  -0.535  -0.532
 -0.510  -0.506  -0.477  -0.471  -0.461  -0.456  -0.450  -0.449
 -0.431  -0.429  -0.425  -0.420  -0.412  -0.407  -0.403  -0.393
 -0.383  -0.375  -0.369  -0.366  -0.357  -0.354  -0.353  -0.346
 -0.344  -0.338  -0.330  -0.329  -0.327  -0.323  -0.318  -0.309
 -0.308  -0.303  -0.300  -0.298  -0.294  -0.281  -0.276  -0.272
 -0.267  -0.259  -0.251  -0.243  -0.232  -0.231  -0.230  -0.183
 -0.180  -0.174  -0.158  -0.156  -0.150  -0.146  -0.142  -0.142
 -0.141

          Ground-State Mulliken Net Atomic Charges

     Atom                 Charge (a.u.)
  ----------------------------------------
      1 O                    -0.216523
      2 C                     0.216346
      3 C                    -0.077787
      4 C                    -0.078669
      5 C                     0.214188
      6 O                    -0.182104
      7 C                    -0.063469
      8 C                    -0.059204
      9 O                    -0.184290
     10 C                     0.217046
     11 C                    -0.080575
     12 C                    -0.077815
     13 C                     0.216722
     14 O                    -0.204078
     15 O                    -0.165311
     16 O                    -0.170540
     17 O                    -0.206419
     18 C                    -0.144156
     19 C                     0.025298
     20 C                    -0.144026
     21 C                    -0.143895
     22 C                     0.025607
     23 O                    -0.187235
     24 H                     0.083493
     25 H                     0.085991
     26 H                     0.089686
     27 H                     0.077859
     28 H                     0.072777
     29 H                     0.077942
     30 H                     0.073081
     31 H                     0.084267
     32 O                    -0.194087
     33 C                    -0.128874
     34 C                     0.025491
     35 C                    -0.143861
     36 C                    -0.143887
     37 C                     0.024742
     38 O                    -0.185455
     39 H                     0.086812
     40 H                     0.084601
     41 H                     0.089453
     42 H                     0.081559
     43 H                     0.077941
     44 H                     0.073227
     45 H                     0.078558
     46 H                     0.073177
     47 H                     0.092268
     48 H                     0.087413
     49 H                     0.092434
     50 H                     0.081192
     51 H                     0.084977
     52 H                     0.117036
     53 H                     0.108306
     54 H                     0.078457
     55 H                     0.108019
     56 H                     0.076294
  ----------------------------------------
  Sum of atomic charges =    -0.000000

                    Cartesian Multipole Moments
 -----------------------------------------------------------------
    Charge (ESU x 10^10)
                -0.0000
    Dipole Moment (Debye)
         X      -0.7989      Y       3.3380      Z      -2.2081
       Tot       4.0812
    Quadrupole Moments (Debye-Ang)
        XX    -133.7796     XY       3.7648     YY    -156.5991
        XZ      -1.6975     YZ       4.3283     ZZ    -161.0888

 Total job time:  128.60s(wall), 6125.77s(cpu)
        *  Thank you very much for using Q-Chem.  Have a nice day.  *
