 Q-Chem 5.0, Q-Chem, Inc., Pleasanton, CA (2017)
 Q-Chem 5.0.1 for Intel X86 EM64T Linux

User input:
--------------------------------------------------------------
$molecule
0  1
O -3.94934 -3.66094 2.70899
C -3.26408 -4.56952 2.26188
C -3.36658 -6.02376 2.66595
C -2.34888 -6.54014 3.69624
C -1.45568 -5.50302 4.34018
O -0.65702 -4.92661 3.39397
C 0.34609 -4.06981 3.94976
C 0.73713 -4.55291 5.34254
O 1.77236 -3.71407 5.87877
C 2.14156 -3.98703 7.15483
C 3.49387 -3.41678 7.51084
C 4.0292 -2.36116 6.5324
C 3.01476 -1.77826 5.56915
O 2.21658 -0.89033 5.83191
O -2.2811 -4.2684 1.37308
O 3.23847 -2.06696 4.25752
O 1.55317 -4.77332 7.88716
C 2.64586 -1.40838 3.1992
C 3.49744 -2.59574 8.81907
C 4.90979 -2.57947 9.40208
C 5.62113 -1.6966 8.39494
C 4.43344 -1.26006 7.5278
O 3.34109 -1.25765 8.41504
H 4.18158 -4.28321 7.63888
H 4.88058 -2.76025 5.93674
H 2.77238 -2.96585 9.57637
H 4.84756 -2.03392 10.37127
H 5.3773 -3.57265 9.57482
H 6.06472 -0.83262 8.93751
H 6.39708 -2.20488 7.78229
H 4.65123 -0.29564 7.01751
O -1.98624 -4.80637 5.2012
C -2.00183 -2.99467 0.92399
C -4.67563 -6.33057 3.43688
C -5.02174 -7.81442 3.30997
C -3.95745 -8.42918 4.19415
C -3.29133 -7.16287 4.74205
O -4.33553 -6.2232 4.79711
H -3.39806 -6.61498 1.72321
H -1.66713 -7.2952 3.24528
H -1.71535 -2.34303 1.77719
H -5.53903 -5.71601 3.09954
H -6.0124 -7.95957 3.79804
H -5.06607 -8.21033 2.27265
H -4.46063 -8.99371 5.01035
H -3.22624 -9.08395 3.6724
H -2.77061 -7.37684 5.70156
H -2.88711 -2.56866 0.4053
H -1.15461 -3.03886 0.20936
H 2.99152 -1.8626 2.24816
H 2.93627 -0.33624 3.20951
H 1.5419 -1.48801 3.25576
H -0.06207 -4.48501 6.09593
H 1.10768 -5.60195 5.28516
H -0.0417 -3.03075 4.00054
H 1.2374 -4.09612 3.28836
$end

$opt
CONSTRAINT
tors           1           2           3           4     -98.806
tors           3           4           5           6     -63.898
tors           4           5           6           7    -171.768
tors           5           6           7           8     +29.390
tors           6           7           8           9    +178.257
tors           7           8           9          10    +175.601
tors           8           9          10          11    +161.053
tors           9          10          11          12     +14.871
tors          11          12          13          14     +80.733
ENDCONSTRAINT
$end

$rem
JOBTYPE                   OPT
METHOD                    B3LYP
DFT_D                     d3_op
BASIS                     STO-3G
GEOM_OPT_MAX_CYCLES       100
GEOM_OPT_TOL_GRADIENT     300
GEOM_OPT_TOL_DISPLACEMENT 1200
GEOM_OPT_TOL_ENERGY       100
SYMMETRY                  False
THRESH                    12
SCF_CONVERGENCE           8
MAX_SUB_FILE_NUM          128
MEM_STATIC                400
MEM_TOTAL                 4000
$end
--------------------------------------------------------------

   16   -1510.1107327803      3.99E-09 Convergence criterion met
 Total energy in the final basis set = -1510.11073278
   14   -1510.1847998971      2.70E-09 Convergence criterion met
 Total energy in the final basis set = -1510.18479990
   14   -1510.2251867791      4.05E-09 Convergence criterion met
 Total energy in the final basis set = -1510.22518678
   15   -1510.2465494854      1.39E-09 Convergence criterion met
 Total energy in the final basis set = -1510.24654949
   14   -1510.2577893056      7.71E-09 Convergence criterion met
 Total energy in the final basis set = -1510.25778931
   14   -1510.2636734500      4.82E-09 Convergence criterion met
 Total energy in the final basis set = -1510.26367345
   14   -1510.2673800566      3.19E-09 Convergence criterion met
 Total energy in the final basis set = -1510.26738006
   13   -1510.2694582248      7.31E-09 Convergence criterion met
   12   -1510.2704419533      1.84E-09 Convergence criterion met
 Total energy in the final basis set = -1510.27044195
   11   -1510.2704626680      6.52E-09 Convergence criterion met
 Total energy in the final basis set = -1510.27046267
    9   -1510.2704735147      9.94E-09 Convergence criterion met
 Total energy in the final basis set = -1510.27047351
   10   -1510.2704822139      8.04E-09 Convergence criterion met
 Total energy in the final basis set = -1510.27048221
   11   -1510.2704950965      3.08E-09 Convergence criterion met
 Total energy in the final basis set = -1510.27049510
    9   -1510.2705019260      9.79E-09 Convergence criterion met
 Total energy in the final basis set = -1510.27050193

             Standard Nuclear Orientation (Angstroms)
    I     Atom           X                Y                Z
 ----------------------------------------------------------------
    1      O      -3.9171340963     1.5203900515     1.8105218415
    2      C      -4.0390995071     1.4082070900     0.5717255451
    3      C      -4.8196854426     0.3024240619    -0.2195941049
    4      C      -3.9184978828    -0.8786688146    -0.7940151112
    5      C      -2.4307365203    -0.8793400904    -0.2765658401
    6      O      -1.8176384296     0.3188227306    -0.7526787926
    7      C      -0.3520462042     0.4417460139    -0.5433844301
    8      C       0.5072419937    -0.8697970838    -0.5056713795
    9      O       1.9030101329    -0.3905111928    -0.3283933534
   10      C       2.7936451311    -1.4986926294    -0.1745583507
   11      C       4.2775750172    -1.0746873530    -0.4640095744
   12      C       4.6351921757     0.4706979987    -0.5107746146
   13      C       3.5001528698     1.4748118187    -0.0951675650
   14      O       3.1516422200     1.7992645163     1.0596451334
   15      O      -3.5507458921     2.3692782933    -0.3726524591
   16      O       2.9924312413     2.0912266920    -1.2911051802
   17      O       2.4182721122    -2.6625493549     0.0851351433
   18      C       2.0306505432     3.1591864169    -0.9390898251
   19      C       5.2657350005    -1.5895306648     0.6712392718
   20      C       6.7160842573    -1.6831572963     0.0554373748
   21      C       7.0955457093    -0.1596418295    -0.0486678549
   22      C       5.8072790245     0.5209788885     0.5631562013
   23      O       5.3566999411    -0.4388823599     1.5966010146
   24      H       4.5367175010    -1.5435710289    -1.4321941468
   25      H       4.9818644762     0.7553372431    -1.5197245427
   26      H       4.9085651231    -2.4955101356     1.1987166340
   27      H       7.3907096960    -2.2231813399     0.7387196460
   28      H       6.7207361454    -2.1928167265    -0.9211491392
   29      H       7.9821459298     0.0794196739     0.5598423498
   30      H       7.2812626621     0.1626657054    -1.0856717045
   31      H       5.9681679397     1.5203161256     1.0115417705
   32      O      -1.8965722589    -1.7602092760     0.4307643422
   33      C      -2.7699559159     3.4134912674     0.3276971584
   34      C      -5.8330440494    -0.5101789687     0.6933295717
   35      C      -6.9151945039    -1.1661755539    -0.2498814734
   36      C      -6.0660924423    -2.3012777324    -0.9347455863
   37      C      -4.6778585195    -2.1354369122    -0.1998442491
   38      O      -5.0440353465    -1.6734176394     1.1596499748
   39      H      -5.3445124429     0.8038482860    -1.0528683545
   40      H      -3.9095898897    -0.8634953470    -1.8991688887
   41      H      -1.8627092122     2.9899640008     0.8052346152
   42      H      -6.2259797478     0.0595140667     1.5575536208
   43      H      -7.7391302860    -1.5859810540     0.3489830323
   44      H      -7.3348985338    -0.4494407893    -0.9739457060
   45      H      -6.4894116693    -3.2991177210    -0.7398510515
   46      H      -5.9750758272    -2.1628917804    -2.0240905831
   47      H      -4.0531550820    -3.0475502085    -0.1385831951
   48      H      -3.3714996323     3.9224994810     1.1083669061
   49      H      -2.4710011908     4.1438835353    -0.4464296987
   50      H       1.4877420975     3.4111603231    -1.8688521760
   51      H       2.5551321651     4.0635192880    -0.5662319883
   52      H       1.3144914424     2.8298521191    -0.1607835955
   53      H       0.1785722052    -1.5246697158     0.3276881432
   54      H       0.4114445100    -1.4380454529    -1.4564011999
   55      H      -0.1754936983     0.9884532325     0.4106880603
   56      H      -0.0000964448     1.0855811977    -1.3755193983
 ----------------------------------------------------------------

   10   -1510.2705025778      7.98E-09 Convergence criterion met
 Total energy in the final basis set = -1510.27050258
 Final energy is   -1510.27050257783
 **  OPTIMIZATION CONVERGED  **

                    Orbital Energies (a.u.)
 --------------------------------------------------------------

 Alpha MOs
 -- Occupied --
-18.942 -18.939 -18.933 -18.927 -18.887 -18.886 -18.885 -18.879
-18.874 -18.866 -10.109 -10.104 -10.098 -10.096 -10.081 -10.073
-10.064 -10.062 -10.059 -10.058 -10.058 -10.057 -10.040 -10.040
-10.038 -10.036 -10.020 -10.020 -10.019 -10.019  -1.020  -1.015
 -1.008  -1.003  -0.970  -0.969  -0.947  -0.940  -0.934  -0.929
 -0.764  -0.762  -0.730  -0.722  -0.712  -0.705  -0.700  -0.663
 -0.663  -0.620  -0.598  -0.590  -0.546  -0.545  -0.538  -0.537
 -0.514  -0.510  -0.485  -0.471  -0.463  -0.459  -0.453  -0.448
 -0.442  -0.430  -0.429  -0.415  -0.413  -0.410  -0.409  -0.400
 -0.391  -0.383  -0.381  -0.370  -0.367  -0.363  -0.350  -0.350
 -0.345  -0.339  -0.334  -0.332  -0.330  -0.329  -0.327  -0.313
 -0.311  -0.306  -0.305  -0.299  -0.298  -0.292  -0.284  -0.277
 -0.272  -0.256  -0.251  -0.248  -0.244  -0.233  -0.233  -0.186
 -0.182  -0.174  -0.170  -0.159  -0.157  -0.149  -0.146  -0.143
 -0.143

          Ground-State Mulliken Net Atomic Charges

     Atom                 Charge (a.u.)
  ----------------------------------------
      1 O                    -0.211154
      2 C                     0.208262
      3 C                    -0.079221
      4 C                    -0.076350
      5 C                     0.212089
      6 O                    -0.170660
      7 C                    -0.048603
      8 C                    -0.054189
      9 O                    -0.173494
     10 C                     0.212609
     11 C                    -0.078457
     12 C                    -0.080449
     13 C                     0.216658
     14 O                    -0.215854
     15 O                    -0.166794
     16 O                    -0.173745
     17 O                    -0.209210
     18 C                    -0.130545
     19 C                     0.025146
     20 C                    -0.143470
     21 C                    -0.144760
     22 C                     0.026317
     23 O                    -0.186396
     24 H                     0.085128
     25 H                     0.084366
     26 H                     0.089254
     27 H                     0.078665
     28 H                     0.073102
     29 H                     0.078237
     30 H                     0.072953
     31 H                     0.084767
     32 O                    -0.205175
     33 C                    -0.127632
     34 C                     0.024483
     35 C                    -0.143207
     36 C                    -0.144922
     37 C                     0.024296
     38 O                    -0.186714
     39 H                     0.085243
     40 H                     0.084943
     41 H                     0.085775
     42 H                     0.087917
     43 H                     0.078421
     44 H                     0.072712
     45 H                     0.078629
     46 H                     0.072376
     47 H                     0.089481
     48 H                     0.089939
     49 H                     0.088557
     50 H                     0.085906
     51 H                     0.084051
     52 H                     0.089804
     53 H                     0.116788
     54 H                     0.082985
     55 H                     0.088135
     56 H                     0.093005
  ----------------------------------------
  Sum of atomic charges =    -0.000000

                    Cartesian Multipole Moments
 -----------------------------------------------------------------
    Charge (ESU x 10^10)
                 0.0000
    Dipole Moment (Debye)
         X       0.0193      Y       1.7627      Z      -4.8675
       Tot       5.1769
    Quadrupole Moments (Debye-Ang)
        XX    -139.2697     XY      -1.2108     YY    -157.2062
        XZ       1.0002     YZ       3.5135     ZZ    -167.6881

 Total job time:  56.14s(wall), 2670.30s(cpu)
        *  Thank you very much for using Q-Chem.  Have a nice day.  *
