 Q-Chem 5.0, Q-Chem, Inc., Pleasanton, CA (2017)
 Q-Chem 5.0.1 for Intel X86 EM64T Linux

User input:
--------------------------------------------------------------
$molecule
0  1
O 3.8725988209 -2.309454973 0.1602775281
C 4.1556901941 -1.4616204351 -0.7129572494
C 5.0749011439 -0.2007259508 -0.5657788854
C 4.3044359863 1.1158104441 -0.1202214676
C 2.8241844951 0.8892786124 0.365679906
O 2.0971837775 0.1180490813 -0.6081124844
C 0.7370848885 0.6673054287 -0.8215072038
C -0.3231325221 -0.125862152 0.0328513493
O -1.6577812408 0.4802402957 -0.1765836503
C -2.6455237772 -0.5681584536 -0.4019450713
C -3.6662557017 -0.6475638621 0.7978505709
C -4.859394112 0.395243014 0.6870588541
C -4.6628743678 1.4134528609 -0.4844766156
O -4.4963514064 1.1570438197 -1.6971431821
O 3.7358736796 -1.5392549158 -2.0815816666
O -4.7141052422 2.7380734645 0.0567839495
O -2.5952004656 -1.3497642063 -1.3726831643
C -4.5142478208 3.733608226 -1.021984544
C -4.466599326 -2.01472 0.7348842408
C -5.2640471746 -2.2036223024 2.0856789232
C -6.4620005497 -1.2044815088 1.8780702864
C -6.096080864 -0.5849925709 0.4730151782
O -5.5215244959 -1.7298201502 -0.2659809249
H -3.1031448597 -0.5146656631 1.7390284179
H -4.9680391477 0.9742047353 1.6210490699
H -3.8589330194 -2.8823846459 0.4132999059
H -5.6156048293 -3.2428313643 2.184260766
H -4.6496299041 -1.9541763308 2.9657543316
H -7.4246919937 -1.7372993872 1.8204973257
H -6.5266298196 -0.4416301715 2.6702250434
H -6.9436636687 -0.1460370774 -0.0882658087
O 2.2955963615 1.4104481433 1.3708437175
C 2.7735858978 -2.6506454518 -2.2510348141
C 6.1440532331 -0.3297749774 0.6024790754
C 7.3105167708 0.6885589042 0.2976068647
C 6.5968272457 2.0584448965 0.6030686226
C 5.1860511184 1.5664162241 1.1137344026
O 5.4726588129 0.271769261 1.7776298542
H 5.5665866579 -0.0347721662 -1.5407072389
H 4.2770665538 1.8625243655 -0.9359075067
H 1.8428190823 -2.4636642516 -1.6768220697
H 6.4565909264 -1.3682764518 0.8255936389
H 8.1574992588 0.5157049272 0.9806832393
H 7.6723484754 0.6160789726 -0.7405498882
H 7.1197043777 2.6208581451 1.3927066005
H 6.511372332 2.6997015308 -0.2889799579
H 4.656963505 2.247313835 1.8086350647
H 3.2021680991 -3.6199641184 -1.9238257967
H 2.5384997744 -2.6926966274 -3.3304615557
H -4.5291525196 4.7237427349 -0.5305548368
H -5.3231657154 3.6831386898 -1.7794870767
H -3.542216022 3.5868166432 -1.535467656
H -0.2939601065 -1.1951211582 -0.2667321521
H -0.0510400302 -0.0495349461 1.1103956203
H 0.5159250265 0.539282935 -1.9017097286
H 0.6862393901 1.7451477469 -0.5610751384
$end

$rem
JOBTYPE                   OPT
METHOD                    B3LYP
DFT_D                     d3_op
BASIS                     STO-3G
GEOM_OPT_MAX_CYCLES       100
GEOM_OPT_TOL_GRADIENT     300
GEOM_OPT_TOL_DISPLACEMENT 1200
GEOM_OPT_TOL_ENERGY       100
SYMMETRY                  False
THRESH                    12
SCF_CONVERGENCE           8
MAX_SUB_FILE_NUM          128
MEM_STATIC                400
MEM_TOTAL                 4000
$end
--------------------------------------------------------------

   16   -1510.2523212892      2.95E-09 Convergence criterion met
 Total energy in the final basis set = -1510.25232129
   13   -1510.2589249961      8.37E-09 Convergence criterion met
 Total energy in the final basis set = -1510.25892500
   13   -1510.2650833427      7.13E-09 Convergence criterion met
 Total energy in the final basis set = -1510.26508334
   14   -1510.2709410947      4.89E-09 Convergence criterion met
 Total energy in the final basis set = -1510.27094109
   13   -1510.2762934694      9.81E-09 Convergence criterion met
 Total energy in the final basis set = -1510.27629347
   14   -1510.2808858300      5.00E-09 Convergence criterion met
 Total energy in the final basis set = -1510.28088583
   14   -1510.2845654253      5.87E-09 Convergence criterion met
 Total energy in the final basis set = -1510.28456543
   14   -1510.2867390777      6.06E-09 Convergence criterion met
   13   -1510.2984633904      8.17E-09 Convergence criterion met
 Total energy in the final basis set = -1510.29846339
   12   -1510.2985548581      3.77E-09 Convergence criterion met
 Total energy in the final basis set = -1510.29855486
   12   -1510.2985561813      3.80E-09 Convergence criterion met
 Total energy in the final basis set = -1510.29855618
   12   -1510.2985926940      3.58E-09 Convergence criterion met
 Total energy in the final basis set = -1510.29859269
   10   -1510.2985876137      8.86E-09 Convergence criterion met
 Total energy in the final basis set = -1510.29858761
    9   -1510.2985887929      8.61E-09 Convergence criterion met
 Total energy in the final basis set = -1510.29858879

             Standard Nuclear Orientation (Angstroms)
    I     Atom           X                Y                Z
 ----------------------------------------------------------------
    1      O      -2.0448279975     1.1515493748     0.5757098587
    2      C      -2.5294234185     0.7644879192    -0.5132565494
    3      C      -3.9327774372     0.0943064982    -0.7397285041
    4      C      -4.0360861545    -1.3860691178    -0.1690853844
    5      C      -2.7402058369    -1.8703980928     0.5751166918
    6      O      -1.6187063833    -1.5920905289    -0.2683083989
    7      C      -0.3380076651    -1.8410390236     0.4377803602
    8      C      -0.1286731615    -0.8559636452     1.6543291523
    9      O       1.3257301837    -0.6205699319     1.8396830568
   10      C       1.7162707753     0.6379105500     1.2854878347
   11      C       3.2783946607     0.7738831806     1.4075453957
   12      C       4.0943580524    -0.1270110787     0.3920467819
   13      C       3.1798875314    -0.9335000593    -0.5850770812
   14      O       2.0056938039    -0.6517757247    -0.9237728347
   15      O      -1.9067498350     0.8953657553    -1.7887579641
   16      O       3.9087517137    -2.0502046577    -1.0906434528
   17      O       0.9304067535     1.5215121118     0.8747417683
   18      C       3.0752404835    -2.8114764016    -2.0525638669
   19      C       3.7426694536     2.2240061734     0.9698572864
   20      C       5.2068948999     2.4641701316     1.5058846911
   21      C       6.0402073423     1.5592226706     0.5238439656
   22      C       4.8999196728     0.9903401476    -0.4103913668
   23      O       3.9261809939     2.0993446246    -0.4966627615
   24      H       3.5679705279     0.5423880665     2.4483645924
   25      H       4.7742505806    -0.8296059672     0.9048005570
   26      H       3.0041526452     3.0169421889     1.1971085233
   27      H       5.4840731256     3.5258433762     1.4085000743
   28      H       5.3181601894     2.1643893588     2.5602067012
   29      H       6.7560217699     2.1531675434    -0.0665693140
   30      H       6.5904723412     0.7581211485     1.0432088106
   31      H       5.2302320795     0.6772602715    -1.4201985462
   32      O      -2.6654654059    -2.4061316158     1.7011338657
   33      C      -0.5421468790     1.4678588807    -1.6799925859
   34      C      -5.0785383750     0.8078777339     0.0991506204
   35      C      -6.4733423550     0.3711286874    -0.5004783288
   36      C      -6.5827707818    -1.1065548030     0.0320908786
   37      C      -5.2380247295    -1.2362850446     0.8501508562
   38      O      -5.0341982512     0.1203195477     1.4092080105
   39      H      -4.1453667840     0.1137066298    -1.8226792033
   40      H      -4.2664812371    -2.1031589299    -0.9786560316
   41      H      -0.1759225210     1.4815742414    -0.6275611583
   42      H      -4.9397725898     1.8984388246     0.2309656335
   43      H      -7.2799376858     1.0052250345    -0.0994685886
   44      H      -6.4901641852     0.4303141495    -1.6005334359
   45      H      -7.4525216514    -1.2333529142     0.6961671539
   46      H      -6.6470367772    -1.8485211029    -0.7798113883
   47      H      -5.2337169131    -1.9921711172     1.6598461003
   48      H      -0.5489792054     2.5004880690    -2.0827511606
   49      H       0.1298677369     0.8427558719    -2.2986146639
   50      H       3.7331851745    -3.5941731788    -2.4724772860
   51      H       2.6969051628    -2.1615923791    -2.8673815099
   52      H       2.2092260547    -3.2877023692    -1.5487839165
   53      H      -0.6635307161     0.1003356797     1.4325164744
   54      H      -0.5129237522    -1.2996131197     2.5934301785
   55      H       0.4546040267    -1.6230170590    -0.3136656865
   56      H      -0.2695831375    -2.8992494659     0.7682818058
 ----------------------------------------------------------------

    9   -1510.2985885231      9.11E-09 Convergence criterion met
 Total energy in the final basis set = -1510.29858852
 Final energy is   -1510.29858852313
 **  OPTIMIZATION CONVERGED  **

                    Orbital Energies (a.u.)
 --------------------------------------------------------------

 Alpha MOs
 -- Occupied --
-18.952 -18.929 -18.926 -18.917 -18.892 -18.891 -18.880 -18.874
-18.873 -18.856 -10.115 -10.099 -10.096 -10.088 -10.076 -10.066
-10.060 -10.054 -10.053 -10.052 -10.047 -10.046 -10.039 -10.032
-10.027 -10.027 -10.024 -10.022 -10.015 -10.014  -1.027  -1.010
 -1.004  -0.992  -0.974  -0.963  -0.950  -0.935  -0.931  -0.919
 -0.767  -0.756  -0.728  -0.719  -0.711  -0.699  -0.688  -0.673
 -0.642  -0.613  -0.594  -0.578  -0.549  -0.540  -0.536  -0.531
 -0.517  -0.502  -0.481  -0.469  -0.461  -0.458  -0.447  -0.445
 -0.435  -0.432  -0.423  -0.423  -0.419  -0.407  -0.396  -0.390
 -0.386  -0.380  -0.370  -0.364  -0.359  -0.355  -0.354  -0.351
 -0.342  -0.337  -0.333  -0.329  -0.328  -0.323  -0.315  -0.312
 -0.307  -0.306  -0.299  -0.298  -0.288  -0.282  -0.279  -0.276
 -0.267  -0.263  -0.254  -0.239  -0.238  -0.228  -0.224  -0.192
 -0.182  -0.169  -0.161  -0.156  -0.152  -0.151  -0.148  -0.139
 -0.136

          Ground-State Mulliken Net Atomic Charges

     Atom                 Charge (a.u.)
  ----------------------------------------
      1 O                    -0.223835
      2 C                     0.217814
      3 C                    -0.079496
      4 C                    -0.078511
      5 C                     0.211653
      6 O                    -0.172628
      7 C                    -0.061156
      8 C                    -0.068732
      9 O                    -0.178135
     10 C                     0.221313
     11 C                    -0.079824
     12 C                    -0.078344
     13 C                     0.218002
     14 O                    -0.213004
     15 O                    -0.171147
     16 O                    -0.164856
     17 O                    -0.210546
     18 C                    -0.128773
     19 C                     0.025047
     20 C                    -0.143988
     21 C                    -0.143522
     22 C                     0.025736
     23 O                    -0.188081
     24 H                     0.086466
     25 H                     0.089170
     26 H                     0.092300
     27 H                     0.079178
     28 H                     0.074406
     29 H                     0.079068
     30 H                     0.074435
     31 H                     0.083085
     32 O                    -0.211809
     33 C                    -0.146597
     34 C                     0.025146
     35 C                    -0.143834
     36 C                    -0.144313
     37 C                     0.023805
     38 O                    -0.187861
     39 H                     0.084982
     40 H                     0.083861
     41 H                     0.119818
     42 H                     0.084108
     43 H                     0.077076
     44 H                     0.072977
     45 H                     0.077206
     46 H                     0.072085
     47 H                     0.088978
     48 H                     0.076449
     49 H                     0.083330
     50 H                     0.094379
     51 H                     0.093645
     52 H                     0.090556
     53 H                     0.118424
     54 H                     0.090696
     55 H                     0.103924
     56 H                     0.079877
  ----------------------------------------
  Sum of atomic charges =     0.000000

                    Cartesian Multipole Moments
 -----------------------------------------------------------------
    Charge (ESU x 10^10)
                 0.0000
    Dipole Moment (Debye)
         X       2.6098      Y      -1.8637      Z      -1.7796
       Tot       3.6676
    Quadrupole Moments (Debye-Ang)
        XX    -136.7899     XY       0.5975     YY    -157.2992
        XZ      10.6142     YZ       6.1140     ZZ    -161.3136

 Total job time:  123.20s(wall), 5864.25s(cpu)
        *  Thank you very much for using Q-Chem.  Have a nice day.  *
