 Q-Chem 5.0, Q-Chem, Inc., Pleasanton, CA (2017)
 Q-Chem 5.0.1 for Intel X86 EM64T Linux

User input:
--------------------------------------------------------------
$molecule
0  1
O -3.94934 -3.66094 2.70899
C -3.26408 -4.56952 2.26188
C -3.36658 -6.02376 2.66595
C -2.48374 -6.49229 3.83425
C -1.72925 -5.41622 4.58319
O -1.04193 -4.63199 3.70114
C 0.28642 -4.32475 4.13744
C 0.31841 -2.94961 4.79629
O 1.64447 -2.66379 5.26826
C 2.10987 -1.42228 4.9833
C 2.27816 -0.56064 6.21209
C 3.59933 -0.76268 6.96838
C 4.68485 -1.50525 6.21543
O 5.14334 -1.1806 5.12963
O -2.29775 -4.27382 1.35233
O 5.17904 -2.61362 6.82697
O 2.08595 -0.96425 3.8486
C 6.16693 -3.41773 6.29831
C 2.37791 0.95745 5.9201
C 1.96885 1.74755 7.16333
C 3.14713 1.47062 8.07495
C 4.05802 0.69657 7.11513
O 3.75581 1.22814 5.84814
H 1.37515 -0.71437 6.84628
H 3.44319 -1.27504 7.94395
H 1.7679 1.28476 5.05021
H 1.9869 2.82433 6.87861
H 0.97197 1.5021 7.5885
H 3.60359 2.44312 8.36419
H 2.91557 0.87103 8.98195
H 5.12123 0.77109 7.43493
O -1.75593 -5.22799 5.79296
C -2.02841 -3.00264 0.89017
C -4.75698 -6.35461 3.26457
C -5.04947 -7.84699 3.11521
C -4.08801 -8.42489 4.13105
C -3.53529 -7.13659 4.75089
O -4.59868 -6.22297 4.65683
H -3.26244 -6.63071 1.73825
H -1.71171 -7.20819 3.47529
H -1.72668 -2.34534 1.73376
H -5.58345 -5.76497 2.80997
H -6.08906 -8.00912 3.48093
H -4.95832 -8.25714 2.08652
H -4.67308 -9.0068 4.87747
H -3.27394 -9.05395 3.70991
H -3.14862 -7.33954 5.77355
H -2.92381 -2.58074 0.38569
H -1.19502 -3.05036 0.15972
H 6.37649 -4.24792 7.00354
H 7.09868 -2.83133 6.14873
H 5.833 -3.84686 5.32939
H -0.0771 -2.18047 4.09298
H -0.35636 -2.97581 5.67756
H 0.95785 -4.32875 3.25305
H 0.68598 -5.08408 4.85157
$end

$opt
CONSTRAINT
tors           1           2           3           4     -90.469
tors           3           4           5           6     -51.139
tors           4           5           6           7    -137.037
tors           5           6           7           8     -97.571
tors           6           7           8           9    +178.257
tors           7           8           9          10    +134.537
tors           8           9          10          11    +112.357
tors           9          10          11          12     +83.613
tors          11          12          13          14     +56.708
ENDCONSTRAINT
$end

$rem
JOBTYPE                   OPT
METHOD                    B3LYP
DFT_D                     d3_op
BASIS                     STO-3G
GEOM_OPT_MAX_CYCLES       100
GEOM_OPT_TOL_GRADIENT     300
GEOM_OPT_TOL_DISPLACEMENT 1200
GEOM_OPT_TOL_ENERGY       100
SYMMETRY                  False
THRESH                    12
SCF_CONVERGENCE           8
MAX_SUB_FILE_NUM          128
MEM_STATIC                400
MEM_TOTAL                 4000
$end
--------------------------------------------------------------

   15   -1510.1224734175      5.67E-09 Convergence criterion met
 Total energy in the final basis set = -1510.12247342
   14   -1510.1920969928      4.34E-09 Convergence criterion met
 Total energy in the final basis set = -1510.19209699
   14   -1510.2286765097      6.63E-09 Convergence criterion met
 Total energy in the final basis set = -1510.22867651
   14   -1510.2440145256      6.22E-09 Convergence criterion met
 Total energy in the final basis set = -1510.24401453
   14   -1510.2487635158      4.48E-09 Convergence criterion met
 Total energy in the final basis set = -1510.24876352
   13   -1510.2503099136      7.48E-09 Convergence criterion met
 Total energy in the final basis set = -1510.25030991
   12   -1510.2508438580      8.75E-09 Convergence criterion met
 Total energy in the final basis set = -1510.25084386
   12   -1510.2510719355      6.33E-09 Convergence criterion met
    9   -1510.2521657997      5.10E-09 Convergence criterion met
 Total energy in the final basis set = -1510.25216580
   10   -1510.2521723101      8.97E-09 Convergence criterion met
 Total energy in the final basis set = -1510.25217231
    9   -1510.2521763082      6.51E-09 Convergence criterion met
 Total energy in the final basis set = -1510.25217631
   10   -1510.2521783886      6.32E-09 Convergence criterion met
 Total energy in the final basis set = -1510.25217839
    9   -1510.2521795349      4.20E-09 Convergence criterion met
 Total energy in the final basis set = -1510.25217953
    9   -1510.2521808035      5.81E-09 Convergence criterion met
 Total energy in the final basis set = -1510.25218080

             Standard Nuclear Orientation (Angstroms)
    I     Atom           X                Y                Z
 ----------------------------------------------------------------
    1      O       3.8725988209    -2.3094549730     0.1602775281
    2      C       4.1556901941    -1.4616204351    -0.7129572494
    3      C       5.0749011439    -0.2007259508    -0.5657788854
    4      C       4.3044359863     1.1158104441    -0.1202214676
    5      C       2.8241844951     0.8892786124     0.3656799060
    6      O       2.0971837775     0.1180490813    -0.6081124844
    7      C       0.7370848885     0.6673054287    -0.8215072038
    8      C      -0.3231325221    -0.1258621520     0.0328513493
    9      O      -1.6577812408     0.4802402957    -0.1765836503
   10      C      -2.6455237772    -0.5681584536    -0.4019450713
   11      C      -3.6662557017    -0.6475638621     0.7978505709
   12      C      -4.8593941120     0.3952430140     0.6870588541
   13      C      -4.6628743678     1.4134528609    -0.4844766156
   14      O      -4.4963514064     1.1570438197    -1.6971431821
   15      O       3.7358736796    -1.5392549158    -2.0815816666
   16      O      -4.7141052422     2.7380734645     0.0567839495
   17      O      -2.5952004656    -1.3497642063    -1.3726831643
   18      C      -4.5142478208     3.7336082260    -1.0219845440
   19      C      -4.4665993260    -2.0147200000     0.7348842408
   20      C      -5.2640471746    -2.2036223024     2.0856789232
   21      C      -6.4620005497    -1.2044815088     1.8780702864
   22      C      -6.0960808640    -0.5849925709     0.4730151782
   23      O      -5.5215244959    -1.7298201502    -0.2659809249
   24      H      -3.1031448597    -0.5146656631     1.7390284179
   25      H      -4.9680391477     0.9742047353     1.6210490699
   26      H      -3.8589330194    -2.8823846459     0.4132999059
   27      H      -5.6156048293    -3.2428313643     2.1842607660
   28      H      -4.6496299041    -1.9541763308     2.9657543316
   29      H      -7.4246919937    -1.7372993872     1.8204973257
   30      H      -6.5266298196    -0.4416301715     2.6702250434
   31      H      -6.9436636687    -0.1460370774    -0.0882658087
   32      O       2.2955963615     1.4104481433     1.3708437175
   33      C       2.7735858978    -2.6506454518    -2.2510348141
   34      C       6.1440532331    -0.3297749774     0.6024790754
   35      C       7.3105167708     0.6885589042     0.2976068647
   36      C       6.5968272457     2.0584448965     0.6030686226
   37      C       5.1860511184     1.5664162241     1.1137344026
   38      O       5.4726588129     0.2717692610     1.7776298542
   39      H       5.5665866579    -0.0347721662    -1.5407072389
   40      H       4.2770665538     1.8625243655    -0.9359075067
   41      H       1.8428190823    -2.4636642516    -1.6768220697
   42      H       6.4565909264    -1.3682764518     0.8255936389
   43      H       8.1574992588     0.5157049272     0.9806832393
   44      H       7.6723484754     0.6160789726    -0.7405498882
   45      H       7.1197043777     2.6208581451     1.3927066005
   46      H       6.5113723320     2.6997015308    -0.2889799579
   47      H       4.6569635050     2.2473138350     1.8086350647
   48      H       3.2021680991    -3.6199641184    -1.9238257967
   49      H       2.5384997744    -2.6926966274    -3.3304615557
   50      H      -4.5291525196     4.7237427349    -0.5305548368
   51      H      -5.3231657154     3.6831386898    -1.7794870767
   52      H      -3.5422160220     3.5868166432    -1.5354676560
   53      H      -0.2939601065    -1.1951211582    -0.2667321521
   54      H      -0.0510400302    -0.0495349461     1.1103956203
   55      H       0.5159250265     0.5392829350    -1.9017097286
   56      H       0.6862393901     1.7451477469    -0.5610751384
 ----------------------------------------------------------------

    9   -1510.2521813624      9.03E-09 Convergence criterion met
 Total energy in the final basis set = -1510.25218136
 Final energy is   -1510.25218136235
 **  OPTIMIZATION CONVERGED  **

                    Orbital Energies (a.u.)
 --------------------------------------------------------------

 Alpha MOs
 -- Occupied --
-18.936 -18.927 -18.927 -18.902 -18.899 -18.890 -18.890 -18.886
-18.875 -18.868 -10.107 -10.105 -10.098 -10.095 -10.074 -10.070
-10.064 -10.062 -10.060 -10.059 -10.058 -10.058 -10.041 -10.039
-10.038 -10.036 -10.022 -10.021 -10.021 -10.019  -1.016  -1.012
 -1.005  -1.003  -0.971  -0.969  -0.943  -0.936  -0.934  -0.930
 -0.764  -0.763  -0.727  -0.723  -0.709  -0.705  -0.698  -0.663
 -0.658  -0.610  -0.597  -0.588  -0.549  -0.546  -0.539  -0.538
 -0.513  -0.509  -0.486  -0.470  -0.462  -0.456  -0.454  -0.448
 -0.436  -0.432  -0.429  -0.413  -0.411  -0.408  -0.407  -0.397
 -0.394  -0.391  -0.374  -0.368  -0.365  -0.357  -0.354  -0.349
 -0.343  -0.340  -0.334  -0.333  -0.331  -0.329  -0.327  -0.312
 -0.310  -0.307  -0.307  -0.300  -0.291  -0.288  -0.287  -0.274
 -0.273  -0.255  -0.249  -0.248  -0.240  -0.235  -0.233  -0.184
 -0.178  -0.170  -0.162  -0.160  -0.156  -0.149  -0.146  -0.144
 -0.143

          Ground-State Mulliken Net Atomic Charges

     Atom                 Charge (a.u.)
  ----------------------------------------
      1 O                    -0.214984
      2 C                     0.212290
      3 C                    -0.080300
      4 C                    -0.076160
      5 C                     0.215813
      6 O                    -0.184139
      7 C                    -0.045482
      8 C                    -0.048996
      9 O                    -0.199328
     10 C                     0.221082
     11 C                    -0.079234
     12 C                    -0.079495
     13 C                     0.206722
     14 O                    -0.209226
     15 O                    -0.168784
     16 O                    -0.168159
     17 O                    -0.180941
     18 C                    -0.128650
     19 C                     0.025198
     20 C                    -0.144675
     21 C                    -0.143044
     22 C                     0.026252
     23 O                    -0.183983
     24 H                     0.084654
     25 H                     0.086880
     26 H                     0.086812
     27 H                     0.078847
     28 H                     0.073759
     29 H                     0.078617
     30 H                     0.074386
     31 H                     0.084254
     32 O                    -0.200432
     33 C                    -0.127249
     34 C                     0.024671
     35 C                    -0.142950
     36 C                    -0.144996
     37 C                     0.023180
     38 O                    -0.188364
     39 H                     0.085014
     40 H                     0.085624
     41 H                     0.087642
     42 H                     0.086772
     43 H                     0.078145
     44 H                     0.073227
     45 H                     0.078384
     46 H                     0.072663
     47 H                     0.089649
     48 H                     0.088454
     49 H                     0.089054
     50 H                     0.090390
     51 H                     0.088664
     52 H                     0.091421
     53 H                     0.084007
     54 H                     0.085568
     55 H                     0.092288
     56 H                     0.089191
  ----------------------------------------
  Sum of atomic charges =    -0.000000

                    Cartesian Multipole Moments
 -----------------------------------------------------------------
    Charge (ESU x 10^10)
                -0.0000
    Dipole Moment (Debye)
         X       0.4326      Y       1.9613      Z       0.1853
       Tot       2.0169
    Quadrupole Moments (Debye-Ang)
        XX    -145.2681     XY       0.6425     YY    -153.2823
        XZ     -20.8117     YZ      -4.7954     ZZ    -165.7912

 Total job time:  63.16s(wall), 3001.98s(cpu)
        *  Thank you very much for using Q-Chem.  Have a nice day.  *
