 Q-Chem 5.0, Q-Chem, Inc., Pleasanton, CA (2017)
 Q-Chem 5.0.1 for Intel X86 EM64T Linux

User input:
--------------------------------------------------------------
$molecule
0  1
O -3.838075371 -3.1381869145 -0.3033578084
C -3.8215526051 -2.0436891504 0.3041391691
C -4.5707772715 -0.7432565117 -0.1521648544
C -4.301167294 0.6160011056 0.5966150526
C -2.8086435881 0.9224338651 1.010430011
O -1.9376551233 -0.1555773361 0.6619927867
C -0.5875707 0.0636901774 1.2315774997
C 0.4542622389 -0.5356402776 0.2301530337
O 1.7960579795 -0.2690193563 0.7958396122
C 2.7419870972 -1.2811017141 0.3372524395
C 3.771736718 -0.7004213641 -0.7012198189
C 3.8942025767 0.8724843866 -0.7446152601
C 3.4520065263 1.5603686876 0.5988521196
O 3.7591730826 1.2261700038 1.762701396
O -3.403278351 -1.9036504553 1.6697781719
O 2.6141768099 2.6781733114 0.2710119238
O 2.6904069829 -2.4695144783 0.7125001857
C 2.135059871 3.3253205971 1.513289998
C 5.2888391411 -1.1447360244 -0.5324800601
C 5.9361120284 -1.1199885573 -1.9708145077
C 5.971756826 0.4302000365 -2.2454928088
C 5.4759803063 1.0071220708 -0.8586855695
O 5.9362633191 0.0071712803 0.135467364
H 3.3989262673 -1.0586237552 -1.6811864255
H 3.3506832213 1.3242978704 -1.5918911037
H 5.4353049503 -2.0751742949 0.0502662042
H 6.9521792885 -1.5451030398 -1.9394784391
H 5.3409603602 -1.6754724488 -2.713073376
H 6.991998197 0.7805006463 -2.4676309811
H 5.3089851796 0.7289490341 -3.0736925097
H 5.8662551109 2.0116928407 -0.6046634484
O -2.4253077973 1.9775260174 1.5630648227
C -2.789276242 -3.1614883659 2.1514109796
C -4.4559695495 -0.3052296925 -1.6807826686
C -5.8913001195 0.1937833309 -2.1024713363
C -6.0126234325 1.4819125351 -1.2042508545
C -4.5460233464 1.6083203696 -0.6285207745
O -3.6870518161 0.9621740326 -1.657022856
H -5.6335033357 -0.9967435071 0.0341321891
H -4.9681851508 0.78092912 1.4608321878
H -3.0451051383 -3.9910954321 1.4617463399
H -3.981102582 -1.0492804501 -2.3492545489
H -5.9068901727 0.4499247399 -3.174223632
H -6.6792937688 -0.5491509449 -1.9005112601
H -6.2741921316 2.3720582274 -1.7975908195
H -6.7568298288 1.366200176 -0.3997546581
H -4.2049988131 2.6439070213 -0.4339289298
H -3.1785471856 -3.365329399 3.1669136216
H -1.687378155 -3.0457554993 2.1978340292
H 1.4333242617 4.1185779522 1.195894066
H 2.9688439119 3.7773420618 2.0887878807
H 1.6080738584 2.6028673673 2.1694524798
H 0.2649421745 -1.6249839545 0.1079917841
H 0.3481257659 -0.045263292 -0.7649214257
H -0.5112228173 -0.4537279899 2.2124658545
H -0.4165861637 1.1504441845 1.3884056214
$end

$rem
JOBTYPE                   OPT
METHOD                    B3LYP
DFT_D                     d3_op
BASIS                     STO-3G
GEOM_OPT_MAX_CYCLES       100
GEOM_OPT_TOL_GRADIENT     300
GEOM_OPT_TOL_DISPLACEMENT 1200
GEOM_OPT_TOL_ENERGY       100
SYMMETRY                  False
THRESH                    12
SCF_CONVERGENCE           8
MAX_SUB_FILE_NUM          128
MEM_STATIC                400
MEM_TOTAL                 4000
$end
--------------------------------------------------------------

   16   -1510.2473900753      3.96E-09 Convergence criterion met
 Total energy in the final basis set = -1510.24739008
   13   -1510.2520472981      8.00E-09 Convergence criterion met
 Total energy in the final basis set = -1510.25204730
   14   -1510.2567633763      2.31E-09 Convergence criterion met
 Total energy in the final basis set = -1510.25676338
   14   -1510.2613272560      2.09E-09 Convergence criterion met
 Total energy in the final basis set = -1510.26132726
   14   -1510.2658708340      3.18E-09 Convergence criterion met
 Total energy in the final basis set = -1510.26587083
   14   -1510.2702489093      2.42E-09 Convergence criterion met
 Total energy in the final basis set = -1510.27024891
   14   -1510.2742204143      2.18E-09 Convergence criterion met
 Total energy in the final basis set = -1510.27422041
   14   -1510.2774078866      6.77E-09 Convergence criterion met
   12   -1510.2998267264      7.13E-09 Convergence criterion met
 Total energy in the final basis set = -1510.29982673
   13   -1510.2997019200      4.32E-09 Convergence criterion met
 Total energy in the final basis set = -1510.29970192
   13   -1510.2998781091      2.40E-09 Convergence criterion met
 Total energy in the final basis set = -1510.29987811
   12   -1510.2998326748      4.50E-09 Convergence criterion met
 Total energy in the final basis set = -1510.29983267
   11   -1510.2998778588      8.32E-09 Convergence criterion met
 Total energy in the final basis set = -1510.29987786
    9   -1510.2998789410      9.31E-09 Convergence criterion met
 Total energy in the final basis set = -1510.29987894

             Standard Nuclear Orientation (Angstroms)
    I     Atom           X                Y                Z
 ----------------------------------------------------------------
    1      O       2.5868189731    -2.2268063002     1.0865635484
    2      C       2.7975716245    -1.5190769332     0.0779809303
    3      C       4.1039308351    -0.7143161552    -0.2640192195
    4      C       3.8555520148     0.8336074844    -0.5134315300
    5      C       2.3593553283     1.2479109496    -0.3267284083
    6      O       1.9365161100     0.8078486404     0.9664438919
    7      C       0.5018253349     1.1282065398     1.1482069493
    8      C      -0.0979058332     0.2485952632     2.2956084346
    9      O      -1.5707525104     0.4271664712     2.2141943931
   10      C      -2.1898792496    -0.7122940446     1.5968674459
   11      C      -3.6716341720    -0.3081754134     1.2604796611
   12      C      -3.8115631413     0.6721197763     0.0184150681
   13      C      -2.4580055154     0.9250789346    -0.7229361830
   14      O      -1.4790184518     0.1397350349    -0.7693870231
   15      O       1.8809437763    -1.3350204661    -1.0041679937
   16      O      -2.4825574729     2.1903796252    -1.3649590030
   17      O      -1.6452249773    -1.8259751287     1.4459492804
   18      C      -1.2454903473     2.3933017441    -2.1690440396
   19      C      -4.5260903389    -1.5497613447     0.7695275752
   20      C      -6.0539690173    -1.1865280843     0.9146994418
   21      C      -6.2330576325    -0.1633826613    -0.2682450498
   22      C      -4.7890595916    -0.1782027017    -0.9100211065
   23      O      -4.3166520760    -1.5635467880    -0.6984396824
   24      H      -4.1091601520     0.1593472169     2.1611484398
   25      H      -4.2532820694     1.6447838376     0.2975935810
   26      H      -4.2133528298    -2.5158225147     1.2107304628
   27      H      -6.6779676086    -2.0830125298     0.7705507713
   28      H      -6.2877616654    -0.7472715661     1.8975552806
   29      H      -6.9811651725    -0.5118212491    -0.9980614362
   30      H      -6.5194765422     0.8422950024     0.0790519405
   31      H      -4.7473093390     0.0898916099    -1.9838375448
   32      O       1.6347889437     1.8741157831    -1.1346245205
   33      C       0.6214567240    -2.0856580660    -0.7703520177
   34      C       5.0943607574    -0.6747071239     0.9694746586
   35      C       6.5201768873    -0.2450930698     0.4464475009
   36      C       6.2927586321     1.2896647060     0.1779607114
   37      C       4.7839303360     1.4582365800     0.6195979431
   38      O       4.6397594302     0.5061438189     1.7416817309
   39      H       4.5744124396    -1.1780544088    -1.1504786045
   40      H       4.1720934447     1.1422712707    -1.5250405786
   41      H       0.6488863176    -2.5639974470     0.2282090887
   42      H       5.0577207464    -1.5841687581     1.5999081562
   43      H       7.2840192722    -0.4097429004     1.2228820151
   44      H       6.8124135531    -0.7974068858    -0.4607692636
   45      H       6.9481397230     1.9120721174     0.8079711001
   46      H       6.4492852919     1.5670155727    -0.8767558036
   47      H       4.4975262526     2.4797896039     0.9370781777
   48      H       0.5196012580    -2.8619208874    -1.5537900060
   49      H      -0.2292510031    -1.3754126058    -0.8298543508
   50      H      -1.2863064607     3.4433846432    -2.5108548560
   51      H      -1.2451984639     1.7211616322    -3.0509560298
   52      H      -0.3081689470     2.2178976416    -1.5908126403
   53      H       0.1655998742    -0.8208857872     2.1471692469
   54      H       0.2357886193     0.5855870789     3.2975154931
   55      H      -0.0644904356     0.8935827564     0.2180705269
   56      H       0.3725226613     2.2072109481     1.3820622810
 ----------------------------------------------------------------

    9   -1510.2998794144      7.30E-09 Convergence criterion met
 Total energy in the final basis set = -1510.29987941
 Final energy is   -1510.29987941440
 **  OPTIMIZATION CONVERGED  **

                    Orbital Energies (a.u.)
 --------------------------------------------------------------

 Alpha MOs
 -- Occupied --
-18.949 -18.932 -18.924 -18.917 -18.891 -18.889 -18.884 -18.875
-18.874 -18.864 -10.114 -10.100 -10.099 -10.090 -10.066 -10.063
-10.061 -10.058 -10.056 -10.056 -10.053 -10.045 -10.039 -10.035
-10.032 -10.030 -10.024 -10.022 -10.018 -10.017  -1.024  -1.012
 -1.006  -0.996  -0.974  -0.966  -0.947  -0.937  -0.932  -0.923
 -0.767  -0.760  -0.728  -0.722  -0.712  -0.703  -0.692  -0.664
 -0.643  -0.611  -0.595  -0.578  -0.548  -0.542  -0.539  -0.533
 -0.517  -0.507  -0.483  -0.472  -0.465  -0.458  -0.455  -0.440
 -0.434  -0.431  -0.426  -0.419  -0.412  -0.406  -0.399  -0.397
 -0.388  -0.377  -0.373  -0.365  -0.360  -0.357  -0.353  -0.346
 -0.344  -0.335  -0.334  -0.330  -0.328  -0.325  -0.320  -0.314
 -0.307  -0.307  -0.303  -0.300  -0.289  -0.287  -0.282  -0.278
 -0.268  -0.260  -0.247  -0.241  -0.238  -0.234  -0.230  -0.191
 -0.176  -0.168  -0.165  -0.160  -0.155  -0.153  -0.148  -0.144
 -0.140

          Ground-State Mulliken Net Atomic Charges

     Atom                 Charge (a.u.)
  ----------------------------------------
      1 O                    -0.216243
      2 C                     0.214125
      3 C                    -0.077656
      4 C                    -0.078327
      5 C                     0.218221
      6 O                    -0.168239
      7 C                    -0.061153
      8 C                    -0.053611
      9 O                    -0.181045
     10 C                     0.214522
     11 C                    -0.079505
     12 C                    -0.077840
     13 C                     0.221235
     14 O                    -0.217970
     15 O                    -0.178817
     16 O                    -0.164112
     17 O                    -0.208445
     18 C                    -0.140344
     19 C                     0.024831
     20 C                    -0.143577
     21 C                    -0.143695
     22 C                     0.025657
     23 O                    -0.187395
     24 H                     0.086249
     25 H                     0.089285
     26 H                     0.090887
     27 H                     0.079143
     28 H                     0.074191
     29 H                     0.079182
     30 H                     0.074550
     31 H                     0.083651
     32 O                    -0.219637
     33 C                    -0.149112
     34 C                     0.024363
     35 C                    -0.144038
     36 C                    -0.143901
     37 C                     0.025953
     38 O                    -0.186067
     39 H                     0.083663
     40 H                     0.084889
     41 H                     0.099754
     42 H                     0.090741
     43 H                     0.077593
     44 H                     0.072972
     45 H                     0.077373
     46 H                     0.073222
     47 H                     0.081165
     48 H                     0.078293
     49 H                     0.108890
     50 H                     0.089385
     51 H                     0.086187
     52 H                     0.115200
     53 H                     0.105993
     54 H                     0.088094
     55 H                     0.103425
     56 H                     0.077846
  ----------------------------------------
  Sum of atomic charges =    -0.000000

                    Cartesian Multipole Moments
 -----------------------------------------------------------------
    Charge (ESU x 10^10)
                -0.0000
    Dipole Moment (Debye)
         X      -1.1868      Y       2.2327      Z      -0.8700
       Tot       2.6740
    Quadrupole Moments (Debye-Ang)
        XX    -134.0976     XY      -0.9081     YY    -163.0192
        XZ      -8.5701     YZ       1.2805     ZZ    -161.1014

 Total job time:  115.65s(wall), 5514.86s(cpu)
        *  Thank you very much for using Q-Chem.  Have a nice day.  *
