 Q-Chem 5.0, Q-Chem, Inc., Pleasanton, CA (2017)
 Q-Chem 5.0.1 for Intel X86 EM64T Linux

User input:
--------------------------------------------------------------
$molecule
0  1
O -3.94934 -3.66094 2.70899
C -3.26408 -4.56952 2.26188
C -3.36658 -6.02376 2.66595
C -2.28282 -6.97785 2.13771
C -1.11911 -6.34056 1.41126
O -1.30616 -4.99006 1.33019
C -0.34353 -4.33733 0.4956
C -0.04003 -2.94318 1.03446
O 0.95595 -2.30864 0.21699
C 0.91358 -0.95336 0.19285
C 2.06248 -0.31545 0.937
C 3.25196 -1.24681 1.21263
C 3.28035 -2.53579 0.41612
O 3.07153 -2.63178 -0.78461
O -3.44848 -4.54437 0.88774
O 3.54261 -3.66545 1.12522
O -0.08339 -0.33061 -0.14368
C 3.73928 -4.90954 0.56209
C 2.75813 0.79595 0.12509
C 3.48304 1.74557 1.07786
C 4.62378 0.86235 1.54128
C 4.39049 -0.36974 0.65879
O 3.82811 0.15359 -0.51959
H 1.63693 0.13197 1.86333
H 3.39249 -1.48415 2.29068
H 2.06276 1.36489 -0.53007
H 3.90186 2.56978 0.45674
H 2.86031 2.18059 1.88896
H 5.58277 1.3619 1.27915
H 4.61259 0.59742 2.6208
H 5.3364 -0.9425 0.53216
O -0.17618 -6.97077 0.94688
C -3.70249 -3.44059 0.08438
C -3.14323 -6.19132 4.18388
C -3.76962 -7.50035 4.66397
C -2.80282 -8.50743 4.07792
C -1.76479 -7.56649 3.45882
O -1.7663 -6.44879 4.31207
H -4.39652 -6.36557 2.41269
H -2.70481 -7.74583 1.45261
H -3.6842 -2.48522 0.65098
H -3.53797 -5.34138 4.78291
H -3.67449 -7.52467 5.77332
H -4.83539 -7.64442 4.38424
H -2.34941 -9.0867 4.9129
H -3.23627 -9.20108 3.32518
H -0.79021 -8.08984 3.3407
H -4.69543 -3.55993 -0.39533
H -2.93435 -3.37986 -0.71169
H 3.9185 -5.64994 1.36833
H 4.62611 -4.88692 -0.10652
H 2.8493 -5.22157 -0.0209
H -0.99361 -2.36793 1.04917
H 0.34383 -3.02063 2.07482
H -0.73862 -4.25883 -0.539
H 0.63408 -4.86203 0.46144
$end

$opt
CONSTRAINT
tors           1           2           3           4    -171.456
tors           3           4           5           6      -2.262
tors           4           5           6           7    -171.768
tors           5           6           7           8    -146.545
tors           6           7           8           9    +178.257
tors           7           8           9          10    +152.733
tors           8           9          10          11    +108.672
tors           9          10          11          12     +17.223
tors          11          12          13          14     +45.518
ENDCONSTRAINT
$end

$rem
JOBTYPE                   OPT
METHOD                    B3LYP
DFT_D                     d3_op
BASIS                     STO-3G
GEOM_OPT_MAX_CYCLES       100
GEOM_OPT_TOL_GRADIENT     300
GEOM_OPT_TOL_DISPLACEMENT 1200
GEOM_OPT_TOL_ENERGY       100
SYMMETRY                  False
THRESH                    12
SCF_CONVERGENCE           8
MAX_SUB_FILE_NUM          128
MEM_STATIC                400
MEM_TOTAL                 4000
$end
--------------------------------------------------------------

   16   -1510.0716163339      4.57E-09 Convergence criterion met
 Total energy in the final basis set = -1510.07161633
   14   -1510.1471463233      6.72E-09 Convergence criterion met
 Total energy in the final basis set = -1510.14714632
   15   -1510.1898581182      2.99E-09 Convergence criterion met
 Total energy in the final basis set = -1510.18985812
   14   -1510.2153088484      6.03E-09 Convergence criterion met
 Total energy in the final basis set = -1510.21530885
   14   -1510.2281660755      6.76E-09 Convergence criterion met
 Total energy in the final basis set = -1510.22816608
   13   -1510.2358205478      8.48E-09 Convergence criterion met
 Total energy in the final basis set = -1510.23582055
   13   -1510.2405157105      8.20E-09 Convergence criterion met
 Total energy in the final basis set = -1510.24051571
   12   -1510.2434680583      8.48E-09 Convergence criterion met
    9   -1510.2474514192      9.59E-09 Convergence criterion met
 Total energy in the final basis set = -1510.24745142
    9   -1510.2474401543      6.90E-09 Convergence criterion met
 Total energy in the final basis set = -1510.24744015
    9   -1510.2474444466      8.45E-09 Convergence criterion met
 Total energy in the final basis set = -1510.24744445
    9   -1510.2474485811      6.63E-09 Convergence criterion met
 Total energy in the final basis set = -1510.24744858
   10   -1510.2474511415      6.78E-09 Convergence criterion met
 Total energy in the final basis set = -1510.24745114
    9   -1510.2474524493      6.85E-09 Convergence criterion met
 Total energy in the final basis set = -1510.24745245

             Standard Nuclear Orientation (Angstroms)
    I     Atom           X                Y                Z
 ----------------------------------------------------------------
    1      O      -3.8380753710    -3.1381869145    -0.3033578084
    2      C      -3.8215526051    -2.0436891504     0.3041391691
    3      C      -4.5707772715    -0.7432565117    -0.1521648544
    4      C      -4.3011672940     0.6160011056     0.5966150526
    5      C      -2.8086435881     0.9224338651     1.0104300110
    6      O      -1.9376551233    -0.1555773361     0.6619927867
    7      C      -0.5875707000     0.0636901774     1.2315774997
    8      C       0.4542622389    -0.5356402776     0.2301530337
    9      O       1.7960579795    -0.2690193563     0.7958396122
   10      C       2.7419870972    -1.2811017141     0.3372524395
   11      C       3.7717367180    -0.7004213641    -0.7012198189
   12      C       3.8942025767     0.8724843866    -0.7446152601
   13      C       3.4520065263     1.5603686876     0.5988521196
   14      O       3.7591730826     1.2261700038     1.7627013960
   15      O      -3.4032783510    -1.9036504553     1.6697781719
   16      O       2.6141768099     2.6781733114     0.2710119238
   17      O       2.6904069829    -2.4695144783     0.7125001857
   18      C       2.1350598710     3.3253205971     1.5132899980
   19      C       5.2888391411    -1.1447360244    -0.5324800601
   20      C       5.9361120284    -1.1199885573    -1.9708145077
   21      C       5.9717568260     0.4302000365    -2.2454928088
   22      C       5.4759803063     1.0071220708    -0.8586855695
   23      O       5.9362633191     0.0071712803     0.1354673640
   24      H       3.3989262673    -1.0586237552    -1.6811864255
   25      H       3.3506832213     1.3242978704    -1.5918911037
   26      H       5.4353049503    -2.0751742949     0.0502662042
   27      H       6.9521792885    -1.5451030398    -1.9394784391
   28      H       5.3409603602    -1.6754724488    -2.7130733760
   29      H       6.9919981970     0.7805006463    -2.4676309811
   30      H       5.3089851796     0.7289490341    -3.0736925097
   31      H       5.8662551109     2.0116928407    -0.6046634484
   32      O      -2.4253077973     1.9775260174     1.5630648227
   33      C      -2.7892762420    -3.1614883659     2.1514109796
   34      C      -4.4559695495    -0.3052296925    -1.6807826686
   35      C      -5.8913001195     0.1937833309    -2.1024713363
   36      C      -6.0126234325     1.4819125351    -1.2042508545
   37      C      -4.5460233464     1.6083203696    -0.6285207745
   38      O      -3.6870518161     0.9621740326    -1.6570228560
   39      H      -5.6335033357    -0.9967435071     0.0341321891
   40      H      -4.9681851508     0.7809291200     1.4608321878
   41      H      -3.0451051383    -3.9910954321     1.4617463399
   42      H      -3.9811025820    -1.0492804501    -2.3492545489
   43      H      -5.9068901727     0.4499247399    -3.1742236320
   44      H      -6.6792937688    -0.5491509449    -1.9005112601
   45      H      -6.2741921316     2.3720582274    -1.7975908195
   46      H      -6.7568298288     1.3662001760    -0.3997546581
   47      H      -4.2049988131     2.6439070213    -0.4339289298
   48      H      -3.1785471856    -3.3653293990     3.1669136216
   49      H      -1.6873781550    -3.0457554993     2.1978340292
   50      H       1.4333242617     4.1185779522     1.1958940660
   51      H       2.9688439119     3.7773420618     2.0887878807
   52      H       1.6080738584     2.6028673673     2.1694524798
   53      H       0.2649421745    -1.6249839545     0.1079917841
   54      H       0.3481257659    -0.0452632920    -0.7649214257
   55      H      -0.5112228173    -0.4537279899     2.2124658545
   56      H      -0.4165861637     1.1504441845     1.3884056214
 ----------------------------------------------------------------

    9   -1510.2474531800      4.28E-09 Convergence criterion met
 Total energy in the final basis set = -1510.24745318
 Final energy is   -1510.24745317996
 **  OPTIMIZATION CONVERGED  **

                    Orbital Energies (a.u.)
 --------------------------------------------------------------

 Alpha MOs
 -- Occupied --
-18.936 -18.932 -18.923 -18.913 -18.905 -18.889 -18.888 -18.873
-18.873 -18.860 -10.113 -10.102 -10.102 -10.090 -10.077 -10.071
-10.063 -10.062 -10.061 -10.060 -10.058 -10.056 -10.042 -10.040
-10.039 -10.035 -10.024 -10.022 -10.021 -10.020  -1.017  -1.013
 -1.007  -0.999  -0.973  -0.970  -0.945  -0.938  -0.933  -0.924
 -0.766  -0.763  -0.730  -0.723  -0.709  -0.705  -0.700  -0.660
 -0.657  -0.610  -0.598  -0.585  -0.549  -0.547  -0.540  -0.538
 -0.516  -0.510  -0.493  -0.471  -0.464  -0.458  -0.454  -0.445
 -0.440  -0.432  -0.429  -0.411  -0.411  -0.407  -0.405  -0.403
 -0.397  -0.382  -0.376  -0.367  -0.364  -0.361  -0.352  -0.351
 -0.344  -0.341  -0.333  -0.331  -0.330  -0.322  -0.319  -0.316
 -0.312  -0.309  -0.306  -0.304  -0.300  -0.294  -0.287  -0.276
 -0.272  -0.249  -0.247  -0.246  -0.239  -0.236  -0.233  -0.185
 -0.169  -0.168  -0.163  -0.161  -0.159  -0.153  -0.148  -0.146
 -0.138

          Ground-State Mulliken Net Atomic Charges

     Atom                 Charge (a.u.)
  ----------------------------------------
      1 O                    -0.219174
      2 C                     0.215812
      3 C                    -0.079343
      4 C                    -0.074049
      5 C                     0.217667
      6 O                    -0.169182
      7 C                    -0.048290
      8 C                    -0.045822
      9 O                    -0.189632
     10 C                     0.224748
     11 C                    -0.081190
     12 C                    -0.079018
     13 C                     0.216257
     14 O                    -0.214602
     15 O                    -0.168411
     16 O                    -0.174339
     17 O                    -0.184461
     18 C                    -0.128867
     19 C                     0.025491
     20 C                    -0.142142
     21 C                    -0.145410
     22 C                     0.025081
     23 O                    -0.185181
     24 H                     0.083260
     25 H                     0.084877
     26 H                     0.089154
     27 H                     0.078764
     28 H                     0.072958
     29 H                     0.078445
     30 H                     0.073345
     31 H                     0.082720
     32 O                    -0.218437
     33 C                    -0.135679
     34 C                     0.024542
     35 C                    -0.140621
     36 C                    -0.146300
     37 C                     0.023019
     38 O                    -0.193230
     39 H                     0.084175
     40 H                     0.089020
     41 H                     0.101074
     42 H                     0.088262
     43 H                     0.078317
     44 H                     0.074593
     45 H                     0.079152
     46 H                     0.074141
     47 H                     0.086210
     48 H                     0.086646
     49 H                     0.083716
     50 H                     0.088778
     51 H                     0.086387
     52 H                     0.090029
     53 H                     0.086171
     54 H                     0.082325
     55 H                     0.087454
     56 H                     0.100789
  ----------------------------------------
  Sum of atomic charges =     0.000000

                    Cartesian Multipole Moments
 -----------------------------------------------------------------
    Charge (ESU x 10^10)
                 0.0000
    Dipole Moment (Debye)
         X      -2.2051      Y       0.4205      Z      -2.1525
       Tot       3.1101
    Quadrupole Moments (Debye-Ang)
        XX    -150.0690     XY      -0.0293     YY    -162.8016
        XZ     -14.4631     YZ      -2.1103     ZZ    -159.6778

 Total job time:  72.03s(wall), 3428.82s(cpu)
        *  Thank you very much for using Q-Chem.  Have a nice day.  *
