 Q-Chem 5.0, Q-Chem, Inc., Pleasanton, CA (2017)
 Q-Chem 5.0.1 for Intel X86 EM64T Linux

User input:
--------------------------------------------------------------
$molecule
0  1
O -3.94934 -3.66094 2.70899
C -3.26408 -4.56952 2.26188
C -3.36658 -6.02376 2.66595
C -2.12697 -6.66202 3.31391
C -0.98441 -5.72864 3.64775
O -1.46543 -4.47237 3.88404
C -1.16368 -3.54714 2.83421
C 0.307 -3.65525 2.44492
O 0.59193 -2.76292 1.35613
C 1.88592 -2.73126 0.9515
C 2.04901 -2.21576 -0.45858
C 0.82691 -1.47674 -1.02303
C -0.21563 -1.05257 -0.00819
O -0.91235 -0.05088 -0.08413
O -3.1677 -4.63403 0.89446
O -1.18496 -2.02209 0.20741
O 2.80491 -3.25695 1.56756
C -2.50379 -1.67831 0.59947
C 3.12806 -1.11934 -0.55758
C 3.65388 -1.04989 -1.98933
C 2.45392 -0.45955 -2.69758
C 1.53698 -0.18736 -1.49815
O 2.42107 0.08691 -0.44093
H 2.36194 -3.08231 -1.08339
H 0.31933 -1.98772 -1.87105
H 3.97168 -1.26107 0.15299
H 4.47633 -0.29873 -1.99505
H 4.03025 -2.0066 -2.4112
H 2.76767 0.491 -3.18354
H 1.96334 -1.12561 -3.44006
H 0.82341 0.62682 -1.7534
O 0.04932 -6.12537 4.16573
C -4.25981 -4.64853 0.03534
C -4.40222 -6.24269 3.79309
C -4.87463 -7.6974 3.81142
C -3.64593 -8.38644 4.3639
C -2.74555 -7.17647 4.62778
O -3.64704 -6.15386 4.97545
H -3.6891 -6.64902 1.79835
H -1.69675 -7.48288 2.69816
H -5.21979 -4.5543 0.58917
H -5.28352 -5.56849 3.72154
H -5.69011 -7.77294 4.56616
H -5.24139 -8.08552 2.83692
H -3.91995 -8.87622 5.3249
H -3.16788 -9.12501 3.68458
H -1.97687 -7.42954 5.39107
H -4.26784 -5.60338 -0.52863
H -4.18464 -3.82578 -0.70418
H -2.48984 -1.10794 1.55373
H -3.16579 -2.48593 0.72479
H -3.00212 -1.06771 -0.18606
H 0.91754 -3.38136 3.33495
H 0.60038 -4.67972 2.11193
H -1.43032 -2.51286 3.13584
H -1.35059 -3.76056 1.78586
$end

$opt
CONSTRAINT
tors           1           2           3           4    -118.109
tors           3           4           5           6     +27.852
tors           4           5           6           7    -107.675
tors           5           6           7           8     -47.368
tors           6           7           8           9    +177.739
tors           7           8           9          10    +177.601
tors           8           9          10          11    +158.527
tors           9          10          11          12     +16.039
tors          11          12          13          14    +147.423
ENDCONSTRAINT
$end

$rem
JOBTYPE                   OPT
METHOD                    B3LYP
DFT_D                     d3_op
BASIS                     STO-3G
GEOM_OPT_MAX_CYCLES       100
GEOM_OPT_TOL_GRADIENT     300
GEOM_OPT_TOL_DISPLACEMENT 1200
GEOM_OPT_TOL_ENERGY       100
SYMMETRY                  False
THRESH                    12
SCF_CONVERGENCE           8
MAX_SUB_FILE_NUM          128
MEM_STATIC                400
MEM_TOTAL                 4000
$end
--------------------------------------------------------------

   16   -1509.9567317430      4.71E-09 Convergence criterion met
 Total energy in the final basis set = -1509.95673174
   15   -1510.0489382944      4.34E-09 Convergence criterion met
 Total energy in the final basis set = -1510.04893829
   15   -1510.1098874585      3.50E-09 Convergence criterion met
 Total energy in the final basis set = -1510.10988746
   15   -1510.1468363408      2.38E-09 Convergence criterion met
 Total energy in the final basis set = -1510.14683634
   15   -1510.1709572960      2.33E-09 Convergence criterion met
 Total energy in the final basis set = -1510.17095730
   14   -1510.1888486989      5.96E-09 Convergence criterion met
 Total energy in the final basis set = -1510.18884870
   14   -1510.2011188207      4.23E-09 Convergence criterion met
 Total energy in the final basis set = -1510.20111882
   13   -1510.2102311413      6.09E-09 Convergence criterion met
   11   -1510.2422294531      7.31E-09 Convergence criterion met
 Total energy in the final basis set = -1510.24222945
   11   -1510.2422668628      5.96E-09 Convergence criterion met
 Total energy in the final basis set = -1510.24226686
   11   -1510.2422907181      4.64E-09 Convergence criterion met
 Total energy in the final basis set = -1510.24229072
   11   -1510.2423129111      5.03E-09 Convergence criterion met
 Total energy in the final basis set = -1510.24231291
   11   -1510.2423166009      3.24E-09 Convergence criterion met
 Total energy in the final basis set = -1510.24231660
   10   -1510.2423188201      8.18E-09 Convergence criterion met
 Total energy in the final basis set = -1510.24231882

             Standard Nuclear Orientation (Angstroms)
    I     Atom           X                Y                Z
 ----------------------------------------------------------------
    1      O      -2.2117374267     2.0816904490     0.2501707078
    2      C      -2.5713699458     1.2774936612    -0.6422025825
    3      C      -3.9222346177     0.4956354171    -0.7561774396
    4      C      -3.8659192861    -1.0857697733    -0.7246162746
    5      C      -2.7544292850    -1.8497987869     0.1066461910
    6      O      -2.2138988221    -1.1747638974     1.2723480994
    7      C      -0.8380359642    -0.6876272023     1.0907725350
    8      C       0.2148671177    -1.6730516187     0.4723085024
    9      O       1.4304937601    -0.8212037094     0.3980953696
   10      C       2.5423136891    -1.5517436411    -0.0950279900
   11      C       3.6560570640    -0.6076962637    -0.6892840658
   12      C       3.7536717200     0.9644244499    -0.4277691905
   13      C       2.7889541454     1.8511890777     0.4621009511
   14      O       3.2104718378     2.8514399054     1.0887028763
   15      O      -1.8138394821     0.9355276513    -1.8018854725
   16      O       1.3873157036     1.6094990699     0.2939438664
   17      O       2.6043577060    -2.8011359623    -0.1331506501
   18      C       0.6158901416     2.5972551602     1.0991187118
   19      C       5.0835535163    -1.0820517388    -0.1614449310
   20      C       6.1888541419    -0.6697972947    -1.2101832015
   21      C       6.2817214094     0.8799415169    -0.9550438891
   22      C       5.2158902657     1.0617606036     0.1941318672
   23      O       5.3358655652    -0.1830436681     0.9856765039
   24      H       3.5921836479    -0.7660438546    -1.7830915757
   25      H       3.7355128929     1.4623733094    -1.4172825298
   26      H       5.1003317504    -2.1438844409     0.1541062564
   27      H       7.1408291063    -1.1752758305    -0.9827482847
   28      H       5.8954016440    -0.9170255916    -2.2428030695
   29      H       7.2829984465     1.1722132427    -0.6007056632
   30      H       6.0352597444     1.4755829444    -1.8484073065
   31      H       5.3419960814     1.9547165642     0.8378992009
   32      O      -2.4323715628    -3.0261457854    -0.1733850740
   33      C      -0.5607599919     1.7231787467    -1.9185664776
   34      C      -5.0229092013     0.8139568828     0.3463243349
   35      C      -6.4165111145     0.7366754862    -0.3872166524
   36      C      -6.4751887803    -0.8037737908    -0.7102552199
   37      C      -5.2205367704    -1.3432328277     0.0908359537
   38      O      -5.0572439578    -0.3873181256     1.2111863081
   39      H      -4.3219561866     0.7740423698    -1.7493249957
   40      H      -3.8823229060    -1.5237167027    -1.7381170496
   41      H      -0.7661128646     2.8088697172    -1.8310239292
   42      H      -4.8281954698     1.7248443595     0.9454050454
   43      H      -7.2264217820     1.0338643747     0.2983269974
   44      H      -6.4611719287     1.3685880164    -1.2883932179
   45      H      -7.4015777472    -1.2666698630    -0.3354705143
   46      H      -6.3897005585    -1.0123931491    -1.7890142123
   47      H      -5.3237016569    -2.3775538440     0.4734643292
   48      H      -0.1749073897     1.5066167968    -2.9314988906
   49      H       0.2083573723     1.4416699978    -1.1579252196
   50      H       0.7546738886     2.4106309001     2.1820084930
   51      H      -0.4527587216     2.4580513366     0.8174078073
   52      H       0.9406880745     3.6323327468     0.8753893650
   53      H       0.3729190909    -2.5702660707     1.1083505062
   54      H      -0.0860352137    -2.0108829638    -0.5426149567
   55      H      -0.5024147056    -0.4068687967     2.1102306484
   56      H      -0.8179610197     0.2288275474     0.4721562020
 ----------------------------------------------------------------

    9   -1510.2423190722      5.98E-09 Convergence criterion met
 Total energy in the final basis set = -1510.24231907
 Final energy is   -1510.24231907224
 **  OPTIMIZATION CONVERGED  **

                    Orbital Energies (a.u.)
 --------------------------------------------------------------

 Alpha MOs
 -- Occupied --
-18.946 -18.943 -18.936 -18.908 -18.900 -18.895 -18.892 -18.886
-18.874 -18.873 -10.118 -10.111 -10.103 -10.102 -10.071 -10.070
-10.065 -10.064 -10.059 -10.057 -10.055 -10.046 -10.046 -10.044
-10.041 -10.039 -10.026 -10.024 -10.020 -10.018  -1.024  -1.017
 -1.012  -1.008  -0.975  -0.970  -0.951  -0.942  -0.937  -0.934
 -0.769  -0.761  -0.729  -0.722  -0.712  -0.707  -0.699  -0.669
 -0.656  -0.614  -0.602  -0.589  -0.552  -0.543  -0.542  -0.538
 -0.521  -0.512  -0.490  -0.480  -0.469  -0.461  -0.450  -0.445
 -0.438  -0.435  -0.429  -0.422  -0.412  -0.410  -0.406  -0.401
 -0.393  -0.383  -0.382  -0.374  -0.366  -0.359  -0.355  -0.350
 -0.346  -0.342  -0.341  -0.334  -0.331  -0.329  -0.322  -0.319
 -0.311  -0.311  -0.308  -0.306  -0.299  -0.294  -0.286  -0.280
 -0.269  -0.268  -0.255  -0.240  -0.240  -0.234  -0.233  -0.192
 -0.180  -0.174  -0.172  -0.161  -0.158  -0.157  -0.149  -0.147
 -0.144

          Ground-State Mulliken Net Atomic Charges

     Atom                 Charge (a.u.)
  ----------------------------------------
      1 O                    -0.211699
      2 C                     0.216347
      3 C                    -0.080282
      4 C                    -0.078006
      5 C                     0.218789
      6 O                    -0.190234
      7 C                    -0.045720
      8 C                    -0.050324
      9 O                    -0.167663
     10 C                     0.210188
     11 C                    -0.079508
     12 C                    -0.079067
     13 C                     0.211215
     14 O                    -0.214208
     15 O                    -0.171856
     16 O                    -0.164876
     17 O                    -0.214633
     18 C                    -0.145591
     19 C                     0.024626
     20 C                    -0.144298
     21 C                    -0.144567
     22 C                     0.022849
     23 O                    -0.191429
     24 H                     0.082839
     25 H                     0.081107
     26 H                     0.088739
     27 H                     0.078538
     28 H                     0.072623
     29 H                     0.078504
     30 H                     0.071912
     31 H                     0.093450
     32 O                    -0.186580
     33 C                    -0.147517
     34 C                     0.024783
     35 C                    -0.141491
     36 C                    -0.145648
     37 C                     0.024641
     38 O                    -0.185775
     39 H                     0.086706
     40 H                     0.088652
     41 H                     0.083126
     42 H                     0.090726
     43 H                     0.079415
     44 H                     0.073234
     45 H                     0.079934
     46 H                     0.074082
     47 H                     0.084789
     48 H                     0.086129
     49 H                     0.111285
     50 H                     0.084682
     51 H                     0.111488
     52 H                     0.085552
     53 H                     0.095643
     54 H                     0.085567
     55 H                     0.094087
     56 H                     0.084726
  ----------------------------------------
  Sum of atomic charges =    -0.000000

                    Cartesian Multipole Moments
 -----------------------------------------------------------------
    Charge (ESU x 10^10)
                 0.0000
    Dipole Moment (Debye)
         X      -1.4601      Y       1.9217      Z      -4.2107
       Tot       4.8534
    Quadrupole Moments (Debye-Ang)
        XX    -148.6150     XY      -0.9721     YY    -170.0736
        XZ      -1.2578     YZ      -3.6911     ZZ    -160.4238

 Total job time:  119.41s(wall), 5695.36s(cpu)
        *  Thank you very much for using Q-Chem.  Have a nice day.  *
