 Q-Chem 5.0, Q-Chem, Inc., Pleasanton, CA (2017)
 Q-Chem 5.0.1 for Intel X86 EM64T Linux

User input:
--------------------------------------------------------------
$molecule
0  1
O -2.2117374267 2.081690449 0.2501707078
C -2.5713699458 1.2774936612 -0.6422025825
C -3.9222346177 0.4956354171 -0.7561774396
C -3.8659192861 -1.0857697733 -0.7246162746
C -2.754429285 -1.8497987869 0.106646191
O -2.2138988221 -1.1747638974 1.2723480994
C -0.8380359642 -0.6876272023 1.090772535
C 0.2148671177 -1.6730516187 0.4723085024
O 1.4304937601 -0.8212037094 0.3980953696
C 2.5423136891 -1.5517436411 -0.09502799
C 3.656057064 -0.6076962637 -0.6892840658
C 3.75367172 0.9644244499 -0.4277691905
C 2.7889541454 1.8511890777 0.4621009511
O 3.2104718378 2.8514399054 1.0887028763
O -1.8138394821 0.9355276513 -1.8018854725
O 1.3873157036 1.6094990699 0.2939438664
O 2.604357706 -2.8011359623 -0.1331506501
C 0.6158901416 2.5972551602 1.0991187118
C 5.0835535163 -1.0820517388 -0.161444931
C 6.1888541419 -0.6697972947 -1.2101832015
C 6.2817214094 0.8799415169 -0.9550438891
C 5.2158902657 1.0617606036 0.1941318672
O 5.3358655652 -0.1830436681 0.9856765039
H 3.5921836479 -0.7660438546 -1.7830915757
H 3.7355128929 1.4623733094 -1.4172825298
H 5.1003317504 -2.1438844409 0.1541062564
H 7.1408291063 -1.1752758305 -0.9827482847
H 5.895401644 -0.9170255916 -2.2428030695
H 7.2829984465 1.1722132427 -0.6007056632
H 6.0352597444 1.4755829444 -1.8484073065
H 5.3419960814 1.9547165642 0.8378992009
O -2.4323715628 -3.0261457854 -0.173385074
C -0.5607599919 1.7231787467 -1.9185664776
C -5.0229092013 0.8139568828 0.3463243349
C -6.4165111145 0.7366754862 -0.3872166524
C -6.4751887803 -0.8037737908 -0.7102552199
C -5.2205367704 -1.3432328277 0.0908359537
O -5.0572439578 -0.3873181256 1.2111863081
H -4.3219561866 0.7740423698 -1.7493249957
H -3.882322906 -1.5237167027 -1.7381170496
H -0.7661128646 2.8088697172 -1.8310239292
H -4.8281954698 1.7248443595 0.9454050454
H -7.226421782 1.0338643747 0.2983269974
H -6.4611719287 1.3685880164 -1.2883932179
H -7.4015777472 -1.266669863 -0.3354705143
H -6.3897005585 -1.0123931491 -1.7890142123
H -5.3237016569 -2.377553844 0.4734643292
H -0.1749073897 1.5066167968 -2.9314988906
H 0.2083573723 1.4416699978 -1.1579252196
H 0.7546738886 2.4106309001 2.182008493
H -0.4527587216 2.4580513366 0.8174078073
H 0.9406880745 3.6323327468 0.875389365
H 0.3729190909 -2.5702660707 1.1083505062
H -0.0860352137 -2.0108829638 -0.5426149567
H -0.5024147056 -0.4068687967 2.1102306484
H -0.8179610197 0.2288275474 0.472156202
$end

$rem
JOBTYPE                   OPT
METHOD                    B3LYP
DFT_D                     d3_op
BASIS                     STO-3G
GEOM_OPT_MAX_CYCLES       100
GEOM_OPT_TOL_GRADIENT     300
GEOM_OPT_TOL_DISPLACEMENT 1200
GEOM_OPT_TOL_ENERGY       100
SYMMETRY                  False
THRESH                    12
SCF_CONVERGENCE           8
MAX_SUB_FILE_NUM          128
MEM_STATIC                400
MEM_TOTAL                 4000
$end
--------------------------------------------------------------

   16   -1510.2423393548      5.92E-09 Convergence criterion met
 Total energy in the final basis set = -1510.24233935
   15   -1510.2393266997      3.43E-09 Convergence criterion met
 Total energy in the final basis set = -1510.23932670
   14   -1510.2454900109      6.24E-09 Convergence criterion met
 Total energy in the final basis set = -1510.24549001
   14   -1510.2486375940      7.68E-09 Convergence criterion met
 Total energy in the final basis set = -1510.24863759
   14   -1510.2486347660      8.57E-09 Convergence criterion met
 Total energy in the final basis set = -1510.24863477
   15   -1510.2458424435      4.56E-09 Convergence criterion met
 Total energy in the final basis set = -1510.24584244
   14   -1510.2540836887      6.23E-09 Convergence criterion met
 Total energy in the final basis set = -1510.25408369
   13   -1510.2597838426      8.99E-09 Convergence criterion met
   13   -1510.2874367895      7.04E-09 Convergence criterion met
 Total energy in the final basis set = -1510.28743679
   12   -1510.2874504485      5.18E-09 Convergence criterion met
 Total energy in the final basis set = -1510.28745045
   13   -1510.2875128934      3.99E-09 Convergence criterion met
 Total energy in the final basis set = -1510.28751289
   12   -1510.2875136058      3.63E-09 Convergence criterion met
 Total energy in the final basis set = -1510.28751361
   12   -1510.2875097558      3.37E-09 Convergence criterion met
 Total energy in the final basis set = -1510.28750976
   11   -1510.2875125067      3.69E-09 Convergence criterion met
 Total energy in the final basis set = -1510.28751251

             Standard Nuclear Orientation (Angstroms)
    I     Atom           X                Y                Z
 ----------------------------------------------------------------
    1      O       4.2444986454     2.6953274727     1.4717189511
    2      C       4.2021227546     1.5053541908     1.8464529081
    3      C       4.9148632816     0.2665916489     1.1958844737
    4      C       3.9359272755    -0.9419072705     0.8854356614
    5      C       2.4410444385    -0.6473953840     1.2366442421
    6      O       2.0690062657     0.5942533709     0.6126024193
    7      C       0.6365839179     0.8821738553     0.8567186475
    8      C      -0.2405628593     0.2912678571    -0.3050187319
    9      O      -1.6739184044     0.4387488432     0.0466318222
   10      C      -2.3051046455    -0.8494226264     0.0977743012
   11      C      -3.8203357552    -0.6526786678     0.4474386847
   12      C      -4.5597792350     0.4514949595    -0.4224287638
   13      C      -3.6310986866     1.1511516596    -1.4751485171
   14      O      -3.1187176511     0.6485438182    -2.4982836958
   15      O       3.4983111434     1.0474321940     3.0112390703
   16      O      -3.4905341940     2.5282275036    -1.0988391038
   17      O      -1.7098601692    -1.9311314102    -0.0955915456
   18      C      -2.5902185215     3.2183785311    -2.0501711990
   19      C      -4.6494079332    -1.9497151064     0.0723833593
   20      C      -6.0445157754    -1.8799819326     0.8078519911
   21      C      -6.7822919915    -0.7849425611    -0.0502343386
   22      C      -5.6754423209    -0.4390543736    -1.1235469766
   23      O      -4.9928976742    -1.7319317167    -1.3518583914
   24      H      -3.8969151910    -0.4145308015     1.5248547542
   25      H      -5.0017801548     1.2323255716     0.2205414612
   26      H      -4.0795644959    -2.8916350605     0.1944274255
   27      H      -6.5596025716    -2.8521474692     0.7532458638
   28      H      -5.9406844246    -1.5931467640     1.8664998308
   29      H      -7.6799318446    -1.1930588127    -0.5415810443
   30      H      -7.0738112689     0.0964089850     0.5431824963
   31      H      -6.0555677722    -0.0297411455    -2.0795992826
   32      O       1.6626599498    -1.3559343746     1.9098006770
   33      C       2.7630908749     2.1702169649     3.6345529229
   34      C       5.4562873353     0.6066658023    -0.2533460357
   35      C       6.5076234532    -0.4977045854    -0.6613091122
   36      C       5.5607878873    -1.7214755140    -0.9526101167
   37      C       4.1407099888    -1.0813408236    -0.6874451755
   38      O       4.2980018281     0.3206180487    -1.1328743542
   39      H       5.7292806279    -0.0578302027     1.8695694356
   40      H       4.2348359201    -1.8591153470     1.4218498380
   41      H       3.4505621736     2.9698146300     3.9786425550
   42      H       5.7821878137     1.6582073096    -0.3734423620
   43      H       7.0582158350    -0.1906631545    -1.5645836139
   44      H       7.2316580911    -0.7005638014     0.1437340939
   45      H       5.6412058116    -2.0561229638    -1.9990575998
   46      H       5.7578467580    -2.5803855150    -0.2911753885
   47      H       3.2986314298    -1.5668120955    -1.2183669844
   48      H       2.2297353647     1.7416847301     4.5030013137
   49      H       2.0302027692     2.6151351152     2.9313719153
   50      H      -1.5651191786     2.7960056468    -2.0174935570
   51      H      -2.5623963400     4.2774324152    -1.7342166030
   52      H      -2.9639798107     3.1499591688    -3.0922636478
   53      H      -0.0528777245     0.8327739008    -1.2552182864
   54      H      -0.0265053117    -0.7919001935    -0.4400884249
   55      H       0.5357696394     1.9851483969     0.8976431145
   56      H       0.3131807396     0.4341951614     1.8207268038
 ----------------------------------------------------------------

   12   -1510.2875115241      5.24E-09 Convergence criterion met
 Total energy in the final basis set = -1510.28751152
 Final energy is   -1510.28751152411
 **  OPTIMIZATION CONVERGED  **

                    Orbital Energies (a.u.)
 --------------------------------------------------------------

 Alpha MOs
 -- Occupied --
-18.937 -18.934 -18.933 -18.928 -18.888 -18.886 -18.884 -18.877
-18.876 -18.865 -10.104 -10.100 -10.100 -10.094 -10.072 -10.066
-10.066 -10.061 -10.060 -10.059 -10.058 -10.057 -10.040 -10.039
-10.038 -10.035 -10.021 -10.020 -10.019 -10.019  -1.018  -1.015
 -1.006  -1.003  -0.970  -0.969  -0.942  -0.937  -0.937  -0.929
 -0.765  -0.763  -0.728  -0.723  -0.709  -0.705  -0.695  -0.663
 -0.660  -0.616  -0.597  -0.583  -0.547  -0.544  -0.537  -0.537
 -0.513  -0.509  -0.484  -0.479  -0.466  -0.459  -0.454  -0.444
 -0.433  -0.430  -0.427  -0.417  -0.411  -0.409  -0.407  -0.401
 -0.392  -0.379  -0.374  -0.367  -0.364  -0.356  -0.352  -0.351
 -0.348  -0.339  -0.336  -0.331  -0.329  -0.327  -0.325  -0.311
 -0.309  -0.305  -0.304  -0.300  -0.292  -0.292  -0.285  -0.274
 -0.271  -0.254  -0.252  -0.250  -0.245  -0.234  -0.233  -0.188
 -0.178  -0.172  -0.168  -0.163  -0.159  -0.151  -0.146  -0.144
 -0.142

          Ground-State Mulliken Net Atomic Charges

     Atom                 Charge (a.u.)
  ----------------------------------------
      1 O                    -0.211098
      2 C                     0.215971
      3 C                    -0.078331
      4 C                    -0.078471
      5 C                     0.212873
      6 O                    -0.170951
      7 C                    -0.051639
      8 C                    -0.056708
      9 O                    -0.174426
     10 C                     0.216021
     11 C                    -0.077633
     12 C                    -0.079409
     13 C                     0.211465
     14 O                    -0.217394
     15 O                    -0.174176
     16 O                    -0.169999
     17 O                    -0.205075
     18 C                    -0.128100
     19 C                     0.024353
     20 C                    -0.144045
     21 C                    -0.143972
     22 C                     0.025753
     23 O                    -0.186466
     24 H                     0.085717
     25 H                     0.085661
     26 H                     0.091395
     27 H                     0.078535
     28 H                     0.072856
     29 H                     0.078039
     30 H                     0.073225
     31 H                     0.083813
     32 O                    -0.211461
     33 C                    -0.128448
     34 C                     0.024547
     35 C                    -0.143912
     36 C                    -0.143804
     37 C                     0.025906
     38 O                    -0.186149
     39 H                     0.084736
     40 H                     0.086480
     41 H                     0.088783
     42 H                     0.090415
     43 H                     0.078421
     44 H                     0.073175
     45 H                     0.078696
     46 H                     0.074180
     47 H                     0.083222
     48 H                     0.090895
     49 H                     0.087483
     50 H                     0.086107
     51 H                     0.088731
     52 H                     0.088849
     53 H                     0.088033
     54 H                     0.103793
     55 H                     0.087692
     56 H                     0.095847
  ----------------------------------------
  Sum of atomic charges =     0.000000

                    Cartesian Multipole Moments
 -----------------------------------------------------------------
    Charge (ESU x 10^10)
                 0.0000
    Dipole Moment (Debye)
         X       0.1828      Y       1.1777      Z       2.2897
       Tot       2.5813
    Quadrupole Moments (Debye-Ang)
        XX    -137.7219     XY     -10.7446     YY    -162.9518
        XZ      -4.3212     YZ      -0.3591     ZZ    -160.4105

 Total job time:  127.21s(wall), 6064.69s(cpu)
        *  Thank you very much for using Q-Chem.  Have a nice day.  *
