 Q-Chem 5.0, Q-Chem, Inc., Pleasanton, CA (2017)
 Q-Chem 5.0.1 for Intel X86 EM64T Linux

User input:
--------------------------------------------------------------
$molecule
0  1
O -6.0790683163 1.8461096239 0.3216649624
C -5.1232617354 1.2398794965 -0.2059881578
C -4.9576039782 -0.3080525604 -0.3874656081
C -3.5027734937 -0.7817853783 -0.7885571718
C -2.3788583427 0.2922873158 -0.4883251561
O -1.5836145272 0.616904061 -1.6835081507
C -0.3690648385 -0.2293341845 -1.6388967003
C 0.7871368317 0.5253292234 -0.8763769368
O 2.0027444552 -0.3176014983 -0.7811454903
C 3.0765713174 0.2246777426 -1.5639010579
C 4.4240660986 0.3870182482 -0.7653349825
C 4.3881464034 0.6213383765 0.8033551631
C 3.1279514574 0.1101897706 1.5939659144
O 2.621361384 -1.030311734 1.6120103754
O -4.0573680958 1.8886177421 -0.9134908807
O 2.6109391201 1.223056495 2.3423460188
O 2.9315708554 0.6169852357 -2.7442595341
C 1.4200056461 0.8033277043 3.1166743862
C 5.4453963569 -0.8407439881 -0.8760584878
C 6.9003078597 -0.2310762596 -0.8308451686
C 6.9657359419 0.2429790216 0.6685638555
C 5.6005552357 -0.3193943929 1.2348738253
O 5.3408735225 -1.5322982698 0.4254090796
H 4.8956342311 1.2688541568 -1.2370387436
H 4.5526647198 1.6830020895 1.057873273
H 5.2451981527 -1.5410988359 -1.7100037308
H 7.6493532395 -1.0119244241 -1.039283439
H 7.035383468 0.5922343846 -1.5502599834
H 7.8188279873 -0.2064229152 1.2010734289
H 7.0285048961 1.3389695594 0.7638312083
H 5.6131740314 -0.5726035531 2.3127445575
O -2.0769889131 0.7198500955 0.6453421802
C -4.1337359287 3.3580080874 -0.7602472228
C -5.2353236774 -1.1749836855 0.9160000133
C -5.6735528645 -2.6118883818 0.4344259869
C -4.3121382581 -3.1562945651 -0.1393907784
C -3.3214815842 -1.9829390422 0.2399788168
O -3.8896181211 -1.4159104334 1.4849765055
H -5.6739010355 -0.5980877106 -1.1800758338
H -3.4381731685 -1.0922695583 -1.8453004184
H -3.9852163111 3.6606474516 0.2963493521
H -5.8982451756 -0.6901816426 1.6589193164
H -6.0165179886 -3.2137165814 1.2912741469
H -6.4754826978 -2.5783248482 -0.3205464673
H -4.0084969623 -4.0938825098 0.3521590662
H -4.3492627688 -3.3244822222 -1.2277804003
H -2.2715790631 -2.2929967429 0.4061156199
H -5.1111587831 3.7483893772 -1.1097331739
H -3.3191329482 3.7711335145 -1.3829099897
H 1.1070944084 1.6880250813 3.7009569585
H 1.6525247515 -0.0342470846 3.8053918553
H 0.5881261247 0.4890609199 2.452783087
H 0.9879503576 1.4855223215 -1.3946012215
H 0.4532752126 0.7382783619 0.1626451311
H -0.0588060833 -0.3934743752 -2.6926936489
H -0.5409360217 -1.221957947 -1.1699629481
$end

$rem
JOBTYPE                   OPT
METHOD                    B3LYP
DFT_D                     d3_op
BASIS                     STO-3G
GEOM_OPT_MAX_CYCLES       100
GEOM_OPT_TOL_GRADIENT     300
GEOM_OPT_TOL_DISPLACEMENT 1200
GEOM_OPT_TOL_ENERGY       100
SYMMETRY                  False
THRESH                    12
SCF_CONVERGENCE           8
MAX_SUB_FILE_NUM          128
MEM_STATIC                400
MEM_TOTAL                 4000
$end
--------------------------------------------------------------

   16   -1510.2388245375      5.47E-09 Convergence criterion met
 Total energy in the final basis set = -1510.23882454
   14   -1510.2443763306      6.85E-09 Convergence criterion met
 Total energy in the final basis set = -1510.24437633
   14   -1510.2494154744      3.98E-09 Convergence criterion met
 Total energy in the final basis set = -1510.24941547
   13   -1510.2538309100      4.66E-09 Convergence criterion met
 Total energy in the final basis set = -1510.25383091
   13   -1510.2582205008      5.90E-09 Convergence criterion met
 Total energy in the final basis set = -1510.25822050
   13   -1510.2623967945      8.05E-09 Convergence criterion met
 Total energy in the final basis set = -1510.26239679
   13   -1510.2662816914      6.32E-09 Convergence criterion met
 Total energy in the final basis set = -1510.26628169
   13   -1510.2701101820      9.52E-09 Convergence criterion met
   12   -1510.2986780136      5.04E-09 Convergence criterion met
 Total energy in the final basis set = -1510.29867801
   11   -1510.2987510324      6.66E-09 Convergence criterion met
 Total energy in the final basis set = -1510.29875103
   11   -1510.2987496924      8.10E-09 Convergence criterion met
 Total energy in the final basis set = -1510.29874969
   10   -1510.2987651658      8.96E-09 Convergence criterion met
 Total energy in the final basis set = -1510.29876517
    9   -1510.2987669258      5.37E-09 Convergence criterion met
 Total energy in the final basis set = -1510.29876693
   10   -1510.2987681759      7.80E-09 Convergence criterion met
 Total energy in the final basis set = -1510.29876818

             Standard Nuclear Orientation (Angstroms)
    I     Atom           X                Y                Z
 ----------------------------------------------------------------
    1      O      -3.3847054475     0.8685158814     1.9769588553
    2      C      -3.1728578827     0.7591563163     0.7503904303
    3      C      -4.0941183479     0.0070030292    -0.2842490457
    4      C      -3.4086928111    -1.1828642115    -1.0815168983
    5      C      -1.8998602974    -1.3478651424    -0.7252414111
    6      O      -1.1448195168    -1.3758022575    -1.9399743888
    7      C       0.3032496956    -1.2277104289    -1.6518497350
    8      C       0.6069878701     0.2970734805    -1.4394936421
    9      O       1.9782054389     0.3888958134    -0.8885723109
   10      C       2.2241225121     1.6534261920    -0.2727032183
   11      C       3.7027582120     1.6380975901     0.2369080497
   12      C       4.0558676613     0.3253965781     1.0542287741
   13      C       2.8232231374    -0.6155288797     1.3180758244
   14      O       2.7217454348    -1.8321132318     1.0522646200
   15      O      -2.0696042893     1.3769958036     0.0717394701
   16      O       1.8341887106     0.1567476539     2.0043762453
   17      O       1.3961482876     2.5901549561    -0.2009127118
   18      C       0.6811759815    -0.6926283830     2.3919584545
   19      C       4.7169495129     1.4957171817    -0.9825932972
   20      C       6.1819499106     1.7683749392    -0.4552470964
   21      C       6.4966673273     0.4178998151     0.2907210097
   22      C       5.1308750357    -0.3507809024     0.1080000845
   23      O       4.7032125792     0.0421084021    -1.2557259328
   24      H       3.8770258007     2.5561637056     0.8246272109
   25      H       4.4946199452     0.5912220985     2.0335947063
   26      H       4.4284583378     2.0646273557    -1.8878739885
   27      H       6.8694789928     1.9359575143    -1.2994489905
   28      H       6.2245247907     2.6437329699     0.2126082933
   29      H       7.3164745410    -0.1304482719    -0.2003996478
   30      H       6.7553353471     0.5660880583     1.3511257840
   31      H       5.1743684954    -1.4539121194     0.1959774218
   32      O      -1.4118882989    -1.4376295229     0.4243947533
   33      C      -1.3011301459     2.2174110902     1.0277139813
   34      C      -5.2428659659    -0.7693019969     0.4838731707
   35      C      -6.3695082617    -1.1575689264    -0.5507973540
   36      C      -5.6823923981    -2.3504742824    -1.3155491034
   37      C      -4.2847009953    -2.4157031883    -0.5813602265
   38      O      -4.6074762401    -2.0656259738     0.8176567869
   39      H      -4.5031992553     0.7559752513    -0.9875268504
   40      H      -3.4910219300    -1.0401740023    -2.1730174282
   41      H      -1.1089976164     1.6705537851     1.9709316340
   42      H      -5.5817852094    -0.2593882142     1.4063059302
   43      H      -7.2809438114    -1.4852576318    -0.0262221777
   44      H      -6.6263639484    -0.3176813765    -1.2158161993
   45      H      -6.2346177446    -3.2933475761    -1.1740144432
   46      H      -5.5760664029    -2.1611064339    -2.3956255699
   47      H      -3.7695915213    -3.3948102220    -0.6292576193
   48      H      -1.8593541687     3.1450856638     1.2656497508
   49      H      -0.3377272866     2.4653949916     0.5283069349
   50      H       0.1162525520    -0.1099808066     3.1424951672
   51      H       1.0225619995    -1.6441095282     2.8451439593
   52      H       0.0135485266    -0.9259825346     1.5294935482
   53      H       0.5399109470     0.8463615827    -2.4035096404
   54      H      -0.1529495645     0.7215089882    -0.7474894398
   55      H       0.8434897563    -1.6286144591    -2.5315663676
   56      H       0.5979343503    -1.7952370457    -0.7427706031
 ----------------------------------------------------------------

    9   -1510.2987686509      8.54E-09 Convergence criterion met
 Total energy in the final basis set = -1510.29876865
 Final energy is   -1510.29876865087
 **  OPTIMIZATION CONVERGED  **

                    Orbital Energies (a.u.)
 --------------------------------------------------------------

 Alpha MOs
 -- Occupied --
-18.944 -18.942 -18.928 -18.922 -18.889 -18.888 -18.887 -18.885
-18.874 -18.866 -10.111 -10.109 -10.097 -10.094 -10.075 -10.071
-10.063 -10.063 -10.058 -10.057 -10.042 -10.041 -10.040 -10.039
-10.038 -10.035 -10.022 -10.022 -10.021 -10.020  -1.023  -1.018
 -1.006  -1.000  -0.972  -0.970  -0.948  -0.943  -0.932  -0.928
 -0.766  -0.764  -0.731  -0.724  -0.712  -0.706  -0.698  -0.653
 -0.649  -0.618  -0.598  -0.583  -0.547  -0.546  -0.538  -0.537
 -0.518  -0.509  -0.486  -0.478  -0.462  -0.461  -0.454  -0.447
 -0.436  -0.432  -0.430  -0.414  -0.409  -0.407  -0.401  -0.399
 -0.394  -0.379  -0.373  -0.368  -0.360  -0.359  -0.356  -0.352
 -0.342  -0.336  -0.334  -0.332  -0.330  -0.328  -0.325  -0.312
 -0.310  -0.306  -0.305  -0.299  -0.295  -0.290  -0.284  -0.279
 -0.271  -0.258  -0.255  -0.245  -0.243  -0.235  -0.235  -0.187
 -0.181  -0.173  -0.172  -0.162  -0.160  -0.150  -0.146  -0.146
 -0.144

          Ground-State Mulliken Net Atomic Charges

     Atom                 Charge (a.u.)
  ----------------------------------------
      1 O                    -0.208661
      2 C                     0.211017
      3 C                    -0.078430
      4 C                    -0.079808
      5 C                     0.218159
      6 O                    -0.168458
      7 C                    -0.050121
      8 C                    -0.054325
      9 O                    -0.166926
     10 C                     0.221214
     11 C                    -0.077776
     12 C                    -0.078290
     13 C                     0.213628
     14 O                    -0.217648
     15 O                    -0.180521
     16 O                    -0.180161
     17 O                    -0.215564
     18 C                    -0.146424
     19 C                     0.025705
     20 C                    -0.144030
     21 C                    -0.143552
     22 C                     0.024434
     23 O                    -0.186687
     24 H                     0.086524
     25 H                     0.083945
     26 H                     0.081576
     27 H                     0.078109
     28 H                     0.074002
     29 H                     0.078077
     30 H                     0.073569
     31 H                     0.090822
     32 O                    -0.212399
     33 C                    -0.146524
     34 C                     0.024822
     35 C                    -0.144446
     36 C                    -0.143405
     37 C                     0.026457
     38 O                    -0.185817
     39 H                     0.084581
     40 H                     0.087720
     41 H                     0.089001
     42 H                     0.092003
     43 H                     0.078863
     44 H                     0.073364
     45 H                     0.078837
     46 H                     0.073948
     47 H                     0.083927
     48 H                     0.079792
     49 H                     0.110729
     50 H                     0.083447
     51 H                     0.084903
     52 H                     0.108556
     53 H                     0.085318
     54 H                     0.103068
     55 H                     0.095316
     56 H                     0.104543
  ----------------------------------------
  Sum of atomic charges =     0.000000

                    Cartesian Multipole Moments
 -----------------------------------------------------------------
    Charge (ESU x 10^10)
                 0.0000
    Dipole Moment (Debye)
         X       0.3471      Y       1.1903      Z      -1.9442
       Tot       2.3059
    Quadrupole Moments (Debye-Ang)
        XX    -140.1453     XY       6.7937     YY    -162.7059
        XZ      13.6037     YZ       2.5031     ZZ    -161.3231

 Total job time:  126.92s(wall), 6047.91s(cpu)
        *  Thank you very much for using Q-Chem.  Have a nice day.  *
