 Q-Chem 5.0, Q-Chem, Inc., Pleasanton, CA (2017)
 Q-Chem 5.0.1 for Intel X86 EM64T Linux

User input:
--------------------------------------------------------------
$molecule
0  1
O -3.94934 -3.66094 2.70899
C -3.26408 -4.56952 2.26188
C -3.36658 -6.02376 2.66595
C -2.22227 -6.95535 2.23403
C -1.01778 -6.29513 1.60047
O -0.77205 -6.85315 0.37832
C 0.21505 -7.88907 0.42047
C 1.60316 -7.30226 0.1861
O 2.59339 -8.33925 0.26978
C 3.22758 -8.63503 -0.89188
C 4.73205 -8.61782 -0.76178
C 5.27729 -7.67729 0.32283
C 4.26525 -7.17849 1.33461
O 3.52751 -7.88475 2.00654
O -2.47602 -4.24147 1.20294
O 4.28419 -5.83778 1.5669
O 2.68174 -8.55085 -1.98475
C 3.68164 -5.21381 2.6418
C 5.30086 -9.96429 -0.26592
C 6.76294 -10.08836 -0.69303
C 7.40781 -9.05245 0.20664
C 6.20382 -8.6537 1.0692
O 5.42029 -9.82075 1.12707
H 5.15827 -8.41949 -1.77195
H 5.82082 -6.80301 -0.09967
H 4.71885 -10.8436 -0.61928
H 7.10451 -11.09913 -0.37297
H 6.96445 -9.96435 -1.77876
H 8.19021 -9.55607 0.81652
H 7.83711 -8.17015 -0.31582
H 6.54029 -8.24475 2.04802
O -0.2837 -5.47374 2.13319
C -2.32632 -2.97029 0.68624
C -3.24491 -6.1719 4.20089
C -3.8806 -7.48693 4.65168
C -2.85641 -8.48092 4.14847
C -1.79409 -7.52535 3.59648
O -1.878 -6.40111 4.43497
H -4.37779 -6.37489 2.36177
H -2.59995 -7.75391 1.55453
H -1.91426 -2.28937 1.46132
H -3.69809 -5.32561 4.76258
H -3.8635 -7.49675 5.76526
H -4.92123 -7.65511 4.30009
H -2.45462 -9.04392 5.02022
H -3.22113 -9.1898 3.3739
H -0.80389 -8.02987 3.55663
H -3.30401 -2.58462 0.32638
H -1.62034 -3.00702 -0.16858
H 3.8617 -4.12147 2.57375
H 4.1222 -5.58783 3.5904
H 2.58825 -5.39007 2.65422
H 1.59804 -6.77319 -0.79473
H 1.78465 -6.52684 0.94403
H -0.00577 -8.62276 -0.38328
H 0.19488 -8.44545 1.38578
$end

$opt
CONSTRAINT
tors           1           2           3           4    -166.596
tors           3           4           5           6    -124.875
tors           4           5           6           7     -95.791
tors           5           6           7           8     -90.564
tors           6           7           8           9    +178.257
tors           7           8           9          10    +112.646
tors           8           9          10          11    +128.367
tors           9          10          11          12     -28.094
tors          11          12          13          14     +53.836
ENDCONSTRAINT
$end

$rem
JOBTYPE                   OPT
METHOD                    B3LYP
DFT_D                     d3_op
BASIS                     STO-3G
GEOM_OPT_MAX_CYCLES       100
GEOM_OPT_TOL_GRADIENT     300
GEOM_OPT_TOL_DISPLACEMENT 1200
GEOM_OPT_TOL_ENERGY       100
SYMMETRY                  False
THRESH                    12
SCF_CONVERGENCE           8
MAX_SUB_FILE_NUM          128
MEM_STATIC                400
MEM_TOTAL                 4000
$end
--------------------------------------------------------------

   15   -1510.0787845432      7.58E-09 Convergence criterion met
 Total energy in the final basis set = -1510.07878454
   14   -1510.1499087951      6.19E-09 Convergence criterion met
 Total energy in the final basis set = -1510.14990880
   14   -1510.2008386957      6.69E-09 Convergence criterion met
 Total energy in the final basis set = -1510.20083870
   14   -1510.2237705497      7.40E-09 Convergence criterion met
 Total energy in the final basis set = -1510.22377055
   14   -1510.2330511858      5.36E-09 Convergence criterion met
 Total energy in the final basis set = -1510.23305119
   14   -1510.2365484760      2.69E-09 Convergence criterion met
 Total energy in the final basis set = -1510.23654848
   13   -1510.2378542362      3.66E-09 Convergence criterion met
 Total energy in the final basis set = -1510.23785424
   12   -1510.2384737438      8.76E-09 Convergence criterion met
   12   -1510.2388212639      3.67E-09 Convergence criterion met
 Total energy in the final basis set = -1510.23882126
   11   -1510.2388385297      4.59E-09 Convergence criterion met
 Total energy in the final basis set = -1510.23883853
   11   -1510.2388454992      2.53E-09 Convergence criterion met
 Total energy in the final basis set = -1510.23884550
   11   -1510.2388515631      2.70E-09 Convergence criterion met
 Total energy in the final basis set = -1510.23885156
   11   -1510.2388573573      3.72E-09 Convergence criterion met
 Total energy in the final basis set = -1510.23885736
   11   -1510.2388628990      3.70E-09 Convergence criterion met
 Total energy in the final basis set = -1510.23886290

             Standard Nuclear Orientation (Angstroms)
    I     Atom           X                Y                Z
 ----------------------------------------------------------------
    1      O      -6.0790683163     1.8461096239     0.3216649624
    2      C      -5.1232617354     1.2398794965    -0.2059881578
    3      C      -4.9576039782    -0.3080525604    -0.3874656081
    4      C      -3.5027734937    -0.7817853783    -0.7885571718
    5      C      -2.3788583427     0.2922873158    -0.4883251561
    6      O      -1.5836145272     0.6169040610    -1.6835081507
    7      C      -0.3690648385    -0.2293341845    -1.6388967003
    8      C       0.7871368317     0.5253292234    -0.8763769368
    9      O       2.0027444552    -0.3176014983    -0.7811454903
   10      C       3.0765713174     0.2246777426    -1.5639010579
   11      C       4.4240660986     0.3870182482    -0.7653349825
   12      C       4.3881464034     0.6213383765     0.8033551631
   13      C       3.1279514574     0.1101897706     1.5939659144
   14      O       2.6213613840    -1.0303117340     1.6120103754
   15      O      -4.0573680958     1.8886177421    -0.9134908807
   16      O       2.6109391201     1.2230564950     2.3423460188
   17      O       2.9315708554     0.6169852357    -2.7442595341
   18      C       1.4200056461     0.8033277043     3.1166743862
   19      C       5.4453963569    -0.8407439881    -0.8760584878
   20      C       6.9003078597    -0.2310762596    -0.8308451686
   21      C       6.9657359419     0.2429790216     0.6685638555
   22      C       5.6005552357    -0.3193943929     1.2348738253
   23      O       5.3408735225    -1.5322982698     0.4254090796
   24      H       4.8956342311     1.2688541568    -1.2370387436
   25      H       4.5526647198     1.6830020895     1.0578732730
   26      H       5.2451981527    -1.5410988359    -1.7100037308
   27      H       7.6493532395    -1.0119244241    -1.0392834390
   28      H       7.0353834680     0.5922343846    -1.5502599834
   29      H       7.8188279873    -0.2064229152     1.2010734289
   30      H       7.0285048961     1.3389695594     0.7638312083
   31      H       5.6131740314    -0.5726035531     2.3127445575
   32      O      -2.0769889131     0.7198500955     0.6453421802
   33      C      -4.1337359287     3.3580080874    -0.7602472228
   34      C      -5.2353236774    -1.1749836855     0.9160000133
   35      C      -5.6735528645    -2.6118883818     0.4344259869
   36      C      -4.3121382581    -3.1562945651    -0.1393907784
   37      C      -3.3214815842    -1.9829390422     0.2399788168
   38      O      -3.8896181211    -1.4159104334     1.4849765055
   39      H      -5.6739010355    -0.5980877106    -1.1800758338
   40      H      -3.4381731685    -1.0922695583    -1.8453004184
   41      H      -3.9852163111     3.6606474516     0.2963493521
   42      H      -5.8982451756    -0.6901816426     1.6589193164
   43      H      -6.0165179886    -3.2137165814     1.2912741469
   44      H      -6.4754826978    -2.5783248482    -0.3205464673
   45      H      -4.0084969623    -4.0938825098     0.3521590662
   46      H      -4.3492627688    -3.3244822222    -1.2277804003
   47      H      -2.2715790631    -2.2929967429     0.4061156199
   48      H      -5.1111587831     3.7483893772    -1.1097331739
   49      H      -3.3191329482     3.7711335145    -1.3829099897
   50      H       1.1070944084     1.6880250813     3.7009569585
   51      H       1.6525247515    -0.0342470846     3.8053918553
   52      H       0.5881261247     0.4890609199     2.4527830870
   53      H       0.9879503576     1.4855223215    -1.3946012215
   54      H       0.4532752126     0.7382783619     0.1626451311
   55      H      -0.0588060833    -0.3934743752    -2.6926936489
   56      H      -0.5409360217    -1.2219579470    -1.1699629481
 ----------------------------------------------------------------

   10   -1510.2388627679      9.21E-09 Convergence criterion met
 Total energy in the final basis set = -1510.23886277
 Final energy is   -1510.23886276792
 **  OPTIMIZATION CONVERGED  **

                    Orbital Energies (a.u.)
 --------------------------------------------------------------

 Alpha MOs
 -- Occupied --
-18.948 -18.924 -18.916 -18.892 -18.891 -18.889 -18.886 -18.885
-18.883 -18.868 -10.108 -10.103 -10.103 -10.091 -10.070 -10.064
-10.064 -10.063 -10.063 -10.060 -10.059 -10.056 -10.043 -10.037
-10.037 -10.035 -10.024 -10.022 -10.021 -10.019  -1.021  -1.009
 -1.001  -0.997  -0.973  -0.971  -0.945  -0.936  -0.927  -0.924
 -0.766  -0.761  -0.726  -0.722  -0.709  -0.705  -0.692  -0.666
 -0.657  -0.607  -0.599  -0.584  -0.549  -0.544  -0.541  -0.537
 -0.516  -0.512  -0.485  -0.474  -0.461  -0.457  -0.452  -0.441
 -0.438  -0.432  -0.426  -0.417  -0.413  -0.406  -0.405  -0.392
 -0.390  -0.384  -0.378  -0.365  -0.361  -0.358  -0.353  -0.350
 -0.340  -0.335  -0.334  -0.334  -0.330  -0.327  -0.324  -0.316
 -0.309  -0.309  -0.307  -0.302  -0.298  -0.293  -0.281  -0.279
 -0.271  -0.261  -0.249  -0.240  -0.237  -0.234  -0.230  -0.184
 -0.177  -0.168  -0.163  -0.153  -0.153  -0.147  -0.143  -0.141
 -0.138

          Ground-State Mulliken Net Atomic Charges

     Atom                 Charge (a.u.)
  ----------------------------------------
      1 O                    -0.208127
      2 C                     0.213897
      3 C                    -0.079567
      4 C                    -0.081441
      5 C                     0.227432
      6 O                    -0.197427
      7 C                    -0.051303
      8 C                    -0.049414
      9 O                    -0.182254
     10 C                     0.212700
     11 C                    -0.080835
     12 C                    -0.079540
     13 C                     0.210666
     14 O                    -0.202453
     15 O                    -0.164124
     16 O                    -0.174790
     17 O                    -0.203020
     18 C                    -0.129999
     19 C                     0.026805
     20 C                    -0.142002
     21 C                    -0.145651
     22 C                     0.026335
     23 O                    -0.184210
     24 H                     0.085034
     25 H                     0.085386
     26 H                     0.084854
     27 H                     0.078129
     28 H                     0.074337
     29 H                     0.078257
     30 H                     0.073858
     31 H                     0.082428
     32 O                    -0.196761
     33 C                    -0.126055
     34 C                     0.025125
     35 C                    -0.142096
     36 C                    -0.145057
     37 C                     0.024396
     38 O                    -0.185252
     39 H                     0.086284
     40 H                     0.085128
     41 H                     0.093002
     42 H                     0.089498
     43 H                     0.079359
     44 H                     0.074092
     45 H                     0.079614
     46 H                     0.074087
     47 H                     0.082150
     48 H                     0.092868
     49 H                     0.097094
     50 H                     0.089314
     51 H                     0.088165
     52 H                     0.090272
     53 H                     0.087544
     54 H                     0.088650
     55 H                     0.087304
     56 H                     0.077315
  ----------------------------------------
  Sum of atomic charges =    -0.000000

                    Cartesian Multipole Moments
 -----------------------------------------------------------------
    Charge (ESU x 10^10)
                -0.0000
    Dipole Moment (Debye)
         X      -0.0485      Y       0.6103      Z      -0.8280
       Tot       1.0297
    Quadrupole Moments (Debye-Ang)
        XX    -144.9302     XY      13.0699     YY    -156.0450
        XZ       8.7683     YZ       3.6691     ZZ    -163.1007

 Total job time:  50.63s(wall), 2407.70s(cpu)
        *  Thank you very much for using Q-Chem.  Have a nice day.  *
