 Q-Chem 5.0, Q-Chem, Inc., Pleasanton, CA (2017)
 Q-Chem 5.0.1 for Intel X86 EM64T Linux

User input:
--------------------------------------------------------------
$molecule
0  1
O -4.0658752454 2.5373364999 0.7092622613
C -3.8062228764 1.7058413324 -0.1858012255
C -4.5948315457 0.3867341823 -0.5046990374
C -3.7378288427 -0.8985003375 -0.8298302684
C -2.2530188775 -0.8941267597 -0.3023449739
O -2.0902346561 0.1949854962 0.6020591069
C -0.7212007779 0.4869184937 1.1055944729
C 0.4908463034 -0.4126921181 0.6641040713
O 1.6704957214 0.2718415271 1.2585374914
C 2.7391790382 -0.6865568281 1.463318279
C 3.46106377 -1.2321787465 0.1581511908
C 4.0966162348 -0.1213349824 -0.7818265731
C 3.5789055447 1.3489681027 -0.6101858239
O 4.2467950748 2.3614325454 -0.3098228637
O -2.8869995392 1.9534752964 -1.2663635187
O 2.2222079007 1.3928356845 -1.0718660152
O 3.1396081452 -0.9225410387 2.6222037001
C 1.6826480494 2.7629907838 -0.933894789
C 4.7781461637 -1.9794024168 0.6250942417
C 5.4461940207 -2.7200069263 -0.6009944184
C 6.1510765332 -1.5220823747 -1.341672195
C 5.6436852452 -0.3045220286 -0.4767935895
O 5.6877426957 -0.841177492 0.9024384848
H 2.7679414627 -1.8816468373 -0.4073333495
H 3.8828290019 -0.3920476951 -1.8330003236
H 4.6406901775 -2.590902417 1.5376694089
H 6.1749358638 -3.468608292 -0.2520638169
H 4.6976774366 -3.2258922767 -1.2320164479
H 7.2482236511 -1.6030459178 -1.2801174426
H 5.8605124618 -1.4405846616 -2.4011999901
H 6.2329044738 0.6302214824 -0.5526842317
O -1.3891074714 -1.7441276368 -0.6053760459
C -2.2568740104 3.2793172128 -1.0868574777
C -5.5164254047 -0.1299798259 0.6796726602
C -6.7240443316 -0.9044267093 0.0245670723
C -5.9836676712 -2.1800600278 -0.5260636559
C -4.5258719307 -1.970487715 0.0492990455
O -4.7356122503 -1.2211525737 1.3103125563
H -5.2221055284 0.6226638991 -1.3854805824
H -3.7270038511 -1.1491664728 -1.9050301168
H -1.6781590429 3.3386880526 -0.1425817243
H -5.7755740233 0.6489115532 1.4232543492
H -7.4692449778 -1.1721161374 0.7908954011
H -7.2219231903 -0.3217065684 -0.7667746826
H -6.423761668 -3.1095611031 -0.1316347314
H -5.987343538 -2.2300388651 -1.6269826451
H -3.9587203015 -2.9032068793 0.2375065054
H -3.0092699145 4.0947294445 -1.0831508858
H -1.5754184853 3.4134826932 -1.9472289173
H 0.6947675908 2.7543358508 -1.4290011583
H 2.3390727561 3.5135570445 -1.4190458808
H 1.5591155635 3.0388258182 0.1336021079
H 0.371493045 -1.4460629133 1.0489994861
H 0.5818343173 -0.4455294954 -0.4432103743
H -0.7858764321 0.4688793568 2.2152313646
H -0.4963336573 1.5312431291 0.7994980215
$end

$rem
JOBTYPE                   OPT
METHOD                    B3LYP
DFT_D                     d3_op
BASIS                     STO-3G
GEOM_OPT_MAX_CYCLES       100
GEOM_OPT_TOL_GRADIENT     300
GEOM_OPT_TOL_DISPLACEMENT 1200
GEOM_OPT_TOL_ENERGY       100
SYMMETRY                  False
THRESH                    12
SCF_CONVERGENCE           8
MAX_SUB_FILE_NUM          128
MEM_STATIC                400
MEM_TOTAL                 4000
$end
--------------------------------------------------------------

   16   -1510.2510096452      3.63E-09 Convergence criterion met
 Total energy in the final basis set = -1510.25100965
   13   -1510.2542223825      8.57E-09 Convergence criterion met
 Total energy in the final basis set = -1510.25422238
   14   -1510.2567392374      6.57E-09 Convergence criterion met
 Total energy in the final basis set = -1510.25673924
   14   -1510.2594190090      6.46E-09 Convergence criterion met
 Total energy in the final basis set = -1510.25941901
   13   -1510.2619564221      9.67E-09 Convergence criterion met
 Total energy in the final basis set = -1510.26195642
   14   -1510.2641713065      6.90E-09 Convergence criterion met
 Total energy in the final basis set = -1510.26417131
   14   -1510.2652257723      4.27E-09 Convergence criterion met
 Total energy in the final basis set = -1510.26522577
   13   -1510.2669917031      6.40E-09 Convergence criterion met
   13   -1510.2849739722      5.61E-09 Convergence criterion met
 Total energy in the final basis set = -1510.28497397
   12   -1510.2850991835      6.06E-09 Convergence criterion met
 Total energy in the final basis set = -1510.28509918
   12   -1510.2851098673      6.41E-09 Convergence criterion met
 Total energy in the final basis set = -1510.28510987
   12   -1510.2850964479      7.55E-09 Convergence criterion met
 Total energy in the final basis set = -1510.28509645
   12   -1510.2851206756      4.13E-09 Convergence criterion met
 Total energy in the final basis set = -1510.28512068
   11   -1510.2851208904      6.85E-09 Convergence criterion met
 Total energy in the final basis set = -1510.28512089

             Standard Nuclear Orientation (Angstroms)
    I     Atom           X                Y                Z
 ----------------------------------------------------------------
    1      O      -3.9864744303    -0.0435291932     2.3752547976
    2      C      -4.0073370846     0.6322077275     1.3258334573
    3      C      -3.8359380724     0.1197134348    -0.1488771931
    4      C      -2.7399906351     0.8999631359    -0.9811881833
    5      C      -1.8619443313     1.8928661892    -0.1553534354
    6      O      -1.5996793078     1.3232839046     1.1318090904
    7      C      -0.3406733130     1.8709615584     1.6966469446
    8      C       0.7934938545     0.9032275132     1.2090060988
    9      O       2.1093507952     1.4948442633     1.5467879825
   10      C       3.2339660396     0.7380883407     1.0612013760
   11      C       2.9957702650    -0.7382833802     0.5356907419
   12      C       2.4864212439    -0.8858086310    -0.9674773007
   13      C       2.3747310101     0.4686484190    -1.7433435068
   14      O       3.2858646452     1.1269344750    -2.2831333308
   15      O      -4.2638578634     2.0430200390     1.2703203482
   16      O       0.9902038731     0.8816694891    -1.7392423499
   17      O       4.3623089805     1.2677867382     1.1569744225
   18      C       0.8193342373     2.2007100110    -2.4008029604
   19      C       4.3746637647    -1.5237935948     0.4568544875
   20      C       4.0559997699    -3.0705837981     0.4420797713
   21      C       3.5009910334    -3.2487077441    -1.0200765938
   22      C       3.6464721696    -1.7797904718    -1.5831397167
   23      O       4.8592250644    -1.2596503298    -0.9164079807
   24      H       2.2986559588    -1.2546466760     1.2181327381
   25      H       1.5045383702    -1.3904814566    -0.9990275550
   26      H       5.1248869370    -1.1898552488     1.1993808951
   27      H       4.9777185024    -3.6535286494     0.5980457944
   28      H       3.3221223976    -3.3538506852     1.2136331100
   29      H       4.1188140951    -3.9472847252    -1.6063296258
   30      H       2.4562694777    -3.5986189972    -1.0403036114
   31      H       3.7448677200    -1.7001923318    -2.6831084974
   32      O      -1.3514389757     2.9611704878    -0.5683362283
   33      C      -4.3568633517     2.5917564781     2.6410280133
   34      C      -3.2710321602    -1.3608072019    -0.2009158920
   35      C      -3.5911009857    -1.9603914917    -1.6247485772
   36      C      -2.5681424903    -1.1663079678    -2.5206242842
   37      C      -1.8012538936    -0.3122240642    -1.4356272045
   38      O      -1.8002983387    -1.1790625065    -0.2367217278
   39      H      -4.8178949818     0.1905831781    -0.6522198883
   40      H      -3.1693082324     1.4411346301    -1.8421286977
   41      H      -3.3961107829     2.4789467551     3.1844251605
   42      H      -3.5645929045    -1.9826397252     0.6673056465
   43      H      -3.3844509373    -3.0424808185    -1.6413536079
   44      H      -4.6384720439    -1.7965567796    -1.9246917495
   45      H      -1.8717111897    -1.8443861401    -3.0389420557
   46      H      -3.0653093252    -0.5313049510    -3.2711047005
   47      H      -0.7615721314    -0.0085902669    -1.6959436397
   48      H      -5.1550325835     2.0946381281     3.2292103926
   49      H      -4.5928370540     3.6657784883     2.5271312202
   50      H      -0.0303639284     2.6974950476    -1.8808813941
   51      H       0.5842530482     2.0561240162    -3.4742102624
   52      H       1.7470875209     2.7975607590    -2.3123734358
   53      H       0.6461749862    -0.0877947623     1.6876767792
   54      H       0.6969501765     0.7991640625     0.1012194285
   55      H      -0.4438337442     1.8713446347     2.7995583316
   56      H      -0.1652153831     2.9030965189     1.3257295398
 ----------------------------------------------------------------

   11   -1510.2851214238      5.54E-09 Convergence criterion met
 Total energy in the final basis set = -1510.28512142
 Final energy is   -1510.28512142380
 **  OPTIMIZATION CONVERGED  **

                    Orbital Energies (a.u.)
 --------------------------------------------------------------

 Alpha MOs
 -- Occupied --
-18.951 -18.942 -18.932 -18.929 -18.896 -18.891 -18.890 -18.889
-18.875 -18.874 -10.112 -10.112 -10.102 -10.098 -10.076 -10.065
-10.064 -10.062 -10.061 -10.060 -10.057 -10.057 -10.047 -10.043
-10.041 -10.040 -10.024 -10.023 -10.023 -10.021  -1.025  -1.023
 -1.009  -1.003  -0.973  -0.973  -0.951  -0.948  -0.937  -0.934
 -0.768  -0.767  -0.730  -0.726  -0.711  -0.708  -0.702  -0.665
 -0.663  -0.612  -0.603  -0.589  -0.553  -0.549  -0.542  -0.540
 -0.518  -0.511  -0.493  -0.480  -0.467  -0.463  -0.461  -0.454
 -0.440  -0.434  -0.432  -0.422  -0.417  -0.416  -0.409  -0.406
 -0.400  -0.390  -0.381  -0.371  -0.366  -0.364  -0.362  -0.351
 -0.347  -0.343  -0.340  -0.334  -0.333  -0.326  -0.318  -0.317
 -0.313  -0.310  -0.309  -0.303  -0.299  -0.298  -0.284  -0.281
 -0.274  -0.262  -0.256  -0.252  -0.243  -0.237  -0.236  -0.196
 -0.184  -0.177  -0.170  -0.168  -0.164  -0.153  -0.148  -0.147
 -0.145

          Ground-State Mulliken Net Atomic Charges

     Atom                 Charge (a.u.)
  ----------------------------------------
      1 O                    -0.213502
      2 C                     0.218002
      3 C                    -0.078965
      4 C                    -0.078866
      5 C                     0.220776
      6 O                    -0.170698
      7 C                    -0.048964
      8 C                    -0.064892
      9 O                    -0.173147
     10 C                     0.203256
     11 C                    -0.083979
     12 C                    -0.081537
     13 C                     0.210689
     14 O                    -0.192899
     15 O                    -0.175083
     16 O                    -0.178466
     17 O                    -0.196134
     18 C                    -0.146477
     19 C                     0.026225
     20 C                    -0.143937
     21 C                    -0.144511
     22 C                     0.026845
     23 O                    -0.182846
     24 H                     0.081751
     25 H                     0.087999
     26 H                     0.091917
     27 H                     0.079390
     28 H                     0.073336
     29 H                     0.079046
     30 H                     0.073735
     31 H                     0.085184
     32 O                    -0.217200
     33 C                    -0.128034
     34 C                     0.024529
     35 C                    -0.143669
     36 C                    -0.145059
     37 C                     0.011626
     38 O                    -0.194158
     39 H                     0.084718
     40 H                     0.085664
     41 H                     0.087824
     42 H                     0.089917
     43 H                     0.077295
     44 H                     0.073581
     45 H                     0.076209
     46 H                     0.073634
     47 H                     0.095924
     48 H                     0.089212
     49 H                     0.090339
     50 H                     0.110952
     51 H                     0.082478
     52 H                     0.098900
     53 H                     0.080009
     54 H                     0.099095
     55 H                     0.091095
     56 H                     0.101872
  ----------------------------------------
  Sum of atomic charges =     0.000000

                    Cartesian Multipole Moments
 -----------------------------------------------------------------
    Charge (ESU x 10^10)
                 0.0000
    Dipole Moment (Debye)
         X      -4.2279      Y      -2.3620      Z      -1.0631
       Tot       4.9583
    Quadrupole Moments (Debye-Ang)
        XX    -176.0573     XY     -13.4552     YY    -159.1621
        XZ       5.5209     YZ       4.2294     ZZ    -155.9867

 Total job time:  197.90s(wall), 9435.42s(cpu)
        *  Thank you very much for using Q-Chem.  Have a nice day.  *
