 Q-Chem 5.0, Q-Chem, Inc., Pleasanton, CA (2017)
 Q-Chem 5.0.1 for Intel X86 EM64T Linux

User input:
--------------------------------------------------------------
$molecule
0  1
O -3.94934 -3.66094 2.70899
C -3.26408 -4.56952 2.26188
C -3.36658 -6.02376 2.66595
C -2.04986 -6.79228 2.86466
C -0.77767 -5.97575 2.81083
O -1.07932 -4.64406 2.84299
C 0.06104 -3.80325 2.63838
C 1.31693 -4.65234 2.47131
O 2.43522 -3.81284 2.14334
C 3.65272 -4.30452 2.48255
C 4.07503 -5.47345 1.62469
C 4.11043 -5.18967 0.11588
C 4.07349 -3.72798 -0.28261
O 4.93156 -3.14864 -0.93272
O -2.70041 -4.36956 1.03299
O 2.88836 -3.08332 -0.12649
O 4.40476 -3.7034 3.23382
C 2.64073 -1.78147 -0.51043
C 5.52806 -5.94646 1.85404
C 5.66097 -7.41072 1.43914
C 5.53015 -7.29007 -0.06505
C 5.50297 -5.76369 -0.21582
O 6.27917 -5.29489 0.85989
H 3.40177 -6.32243 1.87837
H 3.28909 -5.69846 -0.43505
H 5.8802 -5.81601 2.90043
H 6.70394 -7.71751 1.68196
H 4.95321 -8.1192 1.9208
H 6.44137 -7.72567 -0.53169
H 4.61779 -7.75172 -0.50124
H 5.85108 -5.47581 -1.23216
O 0.16647 -6.59613 3.29185
C -2.73174 -3.17544 0.34122
C -4.02058 -6.20473 4.05065
C -4.60968 -7.60908 4.17185
C -3.34775 -8.4317 4.30099
C -2.29138 -7.32245 4.30138
O -2.93273 -6.24558 4.9382
H -4.00302 -6.50709 1.89075
H -1.92936 -7.62278 2.13358
H -2.24906 -2.3717 0.93641
H -4.80665 -5.45123 4.27455
H -5.164 -7.65866 5.1365
H -5.28766 -7.90355 3.34203
H -3.36291 -8.94259 5.28976
H -3.17809 -9.17601 3.49317
H -1.37073 -7.69708 4.79858
H -3.78203 -2.89157 0.11697
H -2.18209 -3.29451 -0.61484
H 1.59281 -1.52153 -0.25537
H 2.78022 -1.67109 -1.60698
H 3.32239 -1.08906 0.02822
H 1.58026 -5.03144 3.48967
H 1.24924 -5.38167 1.62777
H 0.17818 -3.10272 3.49251
H -0.10024 -3.21396 1.71225
$end

$opt
CONSTRAINT
tors           1           2           3           4    -138.072
tors           3           4           5           6     +11.508
tors           4           5           6           7    -173.125
tors           5           6           7           8      -1.309
tors           6           7           8           9    +174.677
tors           7           8           9          10    +154.668
tors           8           9          10          11     +70.870
tors           9          10          11          12     +56.884
tors          11          12          13          14    +120.617
ENDCONSTRAINT
$end

$rem
JOBTYPE                   OPT
METHOD                    B3LYP
DFT_D                     d3_op
BASIS                     STO-3G
GEOM_OPT_MAX_CYCLES       100
GEOM_OPT_TOL_GRADIENT     300
GEOM_OPT_TOL_DISPLACEMENT 1200
GEOM_OPT_TOL_ENERGY       100
SYMMETRY                  False
THRESH                    12
SCF_CONVERGENCE           8
MAX_SUB_FILE_NUM          128
MEM_STATIC                400
MEM_TOTAL                 4000
$end
--------------------------------------------------------------

   16   -1510.0765606628      4.33E-09 Convergence criterion met
 Total energy in the final basis set = -1510.07656066
   15   -1510.1544780224      2.89E-09 Convergence criterion met
 Total energy in the final basis set = -1510.15447802
   14   -1510.2017795265      5.68E-09 Convergence criterion met
 Total energy in the final basis set = -1510.20177953
   15   -1510.2264110641      1.53E-09 Convergence criterion met
 Total energy in the final basis set = -1510.22641106
   14   -1510.2365280975      7.90E-09 Convergence criterion met
 Total energy in the final basis set = -1510.23652810
   14   -1510.2430169601      4.19E-09 Convergence criterion met
 Total energy in the final basis set = -1510.24301696
   13   -1510.2458728780      8.36E-09 Convergence criterion met
 Total energy in the final basis set = -1510.24587288
   13   -1510.2473101001      3.10E-09 Convergence criterion met
   11   -1510.2509646164      4.08E-09 Convergence criterion met
 Total energy in the final basis set = -1510.25096462
   10   -1510.2509716909      9.37E-09 Convergence criterion met
 Total energy in the final basis set = -1510.25097169
   10   -1510.2509743238      6.66E-09 Convergence criterion met
 Total energy in the final basis set = -1510.25097432
   10   -1510.2509759739      5.73E-09 Convergence criterion met
 Total energy in the final basis set = -1510.25097597
    9   -1510.2509771058      3.99E-09 Convergence criterion met
 Total energy in the final basis set = -1510.25097711
    9   -1510.2509783361      3.62E-09 Convergence criterion met
 Total energy in the final basis set = -1510.25097834

             Standard Nuclear Orientation (Angstroms)
    I     Atom           X                Y                Z
 ----------------------------------------------------------------
    1      O      -4.0658752454     2.5373364999     0.7092622613
    2      C      -3.8062228764     1.7058413324    -0.1858012255
    3      C      -4.5948315457     0.3867341823    -0.5046990374
    4      C      -3.7378288427    -0.8985003375    -0.8298302684
    5      C      -2.2530188775    -0.8941267597    -0.3023449739
    6      O      -2.0902346561     0.1949854962     0.6020591069
    7      C      -0.7212007779     0.4869184937     1.1055944729
    8      C       0.4908463034    -0.4126921181     0.6641040713
    9      O       1.6704957214     0.2718415271     1.2585374914
   10      C       2.7391790382    -0.6865568281     1.4633182790
   11      C       3.4610637700    -1.2321787465     0.1581511908
   12      C       4.0966162348    -0.1213349824    -0.7818265731
   13      C       3.5789055447     1.3489681027    -0.6101858239
   14      O       4.2467950748     2.3614325454    -0.3098228637
   15      O      -2.8869995392     1.9534752964    -1.2663635187
   16      O       2.2222079007     1.3928356845    -1.0718660152
   17      O       3.1396081452    -0.9225410387     2.6222037001
   18      C       1.6826480494     2.7629907838    -0.9338947890
   19      C       4.7781461637    -1.9794024168     0.6250942417
   20      C       5.4461940207    -2.7200069263    -0.6009944184
   21      C       6.1510765332    -1.5220823747    -1.3416721950
   22      C       5.6436852452    -0.3045220286    -0.4767935895
   23      O       5.6877426957    -0.8411774920     0.9024384848
   24      H       2.7679414627    -1.8816468373    -0.4073333495
   25      H       3.8828290019    -0.3920476951    -1.8330003236
   26      H       4.6406901775    -2.5909024170     1.5376694089
   27      H       6.1749358638    -3.4686082920    -0.2520638169
   28      H       4.6976774366    -3.2258922767    -1.2320164479
   29      H       7.2482236511    -1.6030459178    -1.2801174426
   30      H       5.8605124618    -1.4405846616    -2.4011999901
   31      H       6.2329044738     0.6302214824    -0.5526842317
   32      O      -1.3891074714    -1.7441276368    -0.6053760459
   33      C      -2.2568740104     3.2793172128    -1.0868574777
   34      C      -5.5164254047    -0.1299798259     0.6796726602
   35      C      -6.7240443316    -0.9044267093     0.0245670723
   36      C      -5.9836676712    -2.1800600278    -0.5260636559
   37      C      -4.5258719307    -1.9704877150     0.0492990455
   38      O      -4.7356122503    -1.2211525737     1.3103125563
   39      H      -5.2221055284     0.6226638991    -1.3854805824
   40      H      -3.7270038511    -1.1491664728    -1.9050301168
   41      H      -1.6781590429     3.3386880526    -0.1425817243
   42      H      -5.7755740233     0.6489115532     1.4232543492
   43      H      -7.4692449778    -1.1721161374     0.7908954011
   44      H      -7.2219231903    -0.3217065684    -0.7667746826
   45      H      -6.4237616680    -3.1095611031    -0.1316347314
   46      H      -5.9873435380    -2.2300388651    -1.6269826451
   47      H      -3.9587203015    -2.9032068793     0.2375065054
   48      H      -3.0092699145     4.0947294445    -1.0831508858
   49      H      -1.5754184853     3.4134826932    -1.9472289173
   50      H       0.6947675908     2.7543358508    -1.4290011583
   51      H       2.3390727561     3.5135570445    -1.4190458808
   52      H       1.5591155635     3.0388258182     0.1336021079
   53      H       0.3714930450    -1.4460629133     1.0489994861
   54      H       0.5818343173    -0.4455294954    -0.4432103743
   55      H      -0.7858764321     0.4688793568     2.2152313646
   56      H      -0.4963336573     1.5312431291     0.7994980215
 ----------------------------------------------------------------

    9   -1510.2509791255      5.34E-09 Convergence criterion met
 Total energy in the final basis set = -1510.25097913
 Final energy is   -1510.25097912547
 **  OPTIMIZATION CONVERGED  **

                    Orbital Energies (a.u.)
 --------------------------------------------------------------

 Alpha MOs
 -- Occupied --
-18.948 -18.935 -18.927 -18.907 -18.901 -18.889 -18.885 -18.881
-18.878 -18.869 -10.112 -10.106 -10.102 -10.100 -10.081 -10.075
-10.067 -10.066 -10.063 -10.059 -10.058 -10.057 -10.043 -10.040
-10.038 -10.038 -10.023 -10.021 -10.020 -10.019  -1.020  -1.014
 -1.006  -1.005  -0.972  -0.969  -0.948  -0.940  -0.936  -0.933
 -0.766  -0.763  -0.730  -0.722  -0.710  -0.704  -0.702  -0.667
 -0.663  -0.614  -0.601  -0.594  -0.548  -0.547  -0.540  -0.538
 -0.515  -0.509  -0.486  -0.474  -0.466  -0.463  -0.457  -0.444
 -0.440  -0.433  -0.430  -0.415  -0.415  -0.413  -0.408  -0.406
 -0.399  -0.383  -0.377  -0.371  -0.368  -0.361  -0.356  -0.349
 -0.345  -0.344  -0.337  -0.334  -0.331  -0.327  -0.326  -0.313
 -0.311  -0.310  -0.308  -0.305  -0.302  -0.295  -0.285  -0.276
 -0.274  -0.257  -0.254  -0.249  -0.240  -0.236  -0.233  -0.185
 -0.181  -0.172  -0.167  -0.160  -0.156  -0.152  -0.149  -0.147
 -0.143

          Ground-State Mulliken Net Atomic Charges

     Atom                 Charge (a.u.)
  ----------------------------------------
      1 O                    -0.219130
      2 C                     0.220370
      3 C                    -0.079614
      4 C                    -0.076031
      5 C                     0.218458
      6 O                    -0.165270
      7 C                    -0.045003
      8 C                    -0.045843
      9 O                    -0.193546
     10 C                     0.217252
     11 C                    -0.081971
     12 C                    -0.081169
     13 C                     0.211524
     14 O                    -0.209473
     15 O                    -0.178036
     16 O                    -0.171366
     17 O                    -0.176447
     18 C                    -0.129320
     19 C                     0.024107
     20 C                    -0.145638
     21 C                    -0.142509
     22 C                     0.023183
     23 O                    -0.188200
     24 H                     0.082430
     25 H                     0.084444
     26 H                     0.089411
     27 H                     0.078634
     28 H                     0.072469
     29 H                     0.078518
     30 H                     0.072402
     31 H                     0.090169
     32 O                    -0.217939
     33 C                    -0.128626
     34 C                     0.023881
     35 C                    -0.142226
     36 C                    -0.145078
     37 C                     0.024279
     38 O                    -0.190893
     39 H                     0.082908
     40 H                     0.087691
     41 H                     0.084698
     42 H                     0.091679
     43 H                     0.078543
     44 H                     0.073398
     45 H                     0.078755
     46 H                     0.073691
     47 H                     0.083677
     48 H                     0.088559
     49 H                     0.085128
     50 H                     0.086241
     51 H                     0.091443
     52 H                     0.089594
     53 H                     0.088917
     54 H                     0.093001
     55 H                     0.095498
     56 H                     0.088378
  ----------------------------------------
  Sum of atomic charges =    -0.000000

                    Cartesian Multipole Moments
 -----------------------------------------------------------------
    Charge (ESU x 10^10)
                -0.0000
    Dipole Moment (Debye)
         X      -2.1801      Y      -1.0550      Z      -4.3902
       Tot       5.0140
    Quadrupole Moments (Debye-Ang)
        XX    -161.2077     XY      -3.4965     YY    -155.9311
        XZ      -4.3610     YZ      -2.4361     ZZ    -166.4113

 Total job time:  81.06s(wall), 3859.40s(cpu)
        *  Thank you very much for using Q-Chem.  Have a nice day.  *
