 Q-Chem 5.0, Q-Chem, Inc., Pleasanton, CA (2017)
 Q-Chem 5.0.1 for Intel X86 EM64T Linux

User input:
--------------------------------------------------------------
$molecule
0  1
O -3.94934 -3.66094 2.70899
C -3.26408 -4.56952 2.26188
C -3.36658 -6.02376 2.66595
C -2.06245 -6.83739 2.69911
C -0.77896 -6.06279 2.49723
O -0.96206 -5.10166 1.54428
C 0.22614 -4.35474 1.26223
C 0.88995 -3.91245 2.56218
O 2.10265 -3.19874 2.27429
C 2.76478 -2.71471 3.3543
C 3.99641 -3.51817 3.6981
C 3.92461 -4.27369 5.03313
C 2.54344 -4.40992 5.64184
O 1.70246 -5.23437 5.31382
O -3.04571 -4.42688 0.91748
O 2.28919 -3.61556 6.71458
O 2.33656 -1.79641 4.03736
C 1.09956 -3.61184 7.41239
C 4.35334 -4.69113 2.74916
C 5.84511 -5.00781 2.8582
C 5.9034 -5.63512 4.23562
C 4.41263 -5.66273 4.58758
O 3.77015 -5.82367 3.34551
H 4.84016 -2.79231 3.67541
H 4.57864 -3.80069 5.79966
H 4.09456 -4.50631 1.68431
H 6.0655 -5.79549 2.10206
H 6.53119 -4.14849 2.69815
H 6.30398 -6.66825 4.1345
H 6.49089 -5.06988 4.99127
H 4.20534 -6.44469 5.35132
O 0.28307 -6.65883 2.64883
C -3.1643 -3.24938 0.20315
C -3.79417 -6.16142 4.14668
C -4.41227 -7.53802 4.39034
C -3.18072 -8.41308 4.32914
C -2.09532 -7.34764 4.15203
O -2.58568 -6.23744 4.85907
H -4.15984 -6.48423 2.0346
H -2.06248 -7.66746 1.95793
H -2.46822 -2.48544 0.61042
H -4.50591 -5.37525 4.48064
H -4.79943 -7.54745 5.43462
H -5.23133 -7.8177 3.69337
H -3.06296 -8.92358 5.31101
H -3.16831 -9.16175 3.50761
H -1.11477 -7.74623 4.49393
H -4.20768 -2.8713 0.25106
H -2.90467 -3.44102 -0.85803
H 1.1616 -2.86867 8.23352
H 0.90837 -4.61478 7.85033
H 0.26256 -3.33077 6.73757
H 0.18276 -3.25998 3.12192
H 1.19012 -4.737 3.19095
H -0.03101 -3.47804 0.63176
H 0.94012 -4.99269 0.69517
$end

$opt
CONSTRAINT
tors           1           2           3           4    -145.285
tors           3           4           5           6     -39.176
tors           4           5           6           7    -177.909
tors           5           6           7           8     -47.368
tors           6           7           8           9    +178.257
tors           7           8           9          10    +177.970
tors           8           9          10          11    +104.705
tors           9          10          11          12    -113.251
tors          11          12          13          14     +80.414
ENDCONSTRAINT
$end

$rem
JOBTYPE                   OPT
METHOD                    B3LYP
DFT_D                     d3_op
BASIS                     STO-3G
GEOM_OPT_MAX_CYCLES       100
GEOM_OPT_TOL_GRADIENT     300
GEOM_OPT_TOL_DISPLACEMENT 1200
GEOM_OPT_TOL_ENERGY       100
SYMMETRY                  False
THRESH                    12
SCF_CONVERGENCE           8
MAX_SUB_FILE_NUM          128
MEM_STATIC                400
MEM_TOTAL                 4000
$end
--------------------------------------------------------------

   16   -1510.0881543974      3.74E-09 Convergence criterion met
 Total energy in the final basis set = -1510.08815440
   14   -1510.1627781234      4.34E-09 Convergence criterion met
 Total energy in the final basis set = -1510.16277812
   14   -1510.2025231024      7.10E-09 Convergence criterion met
 Total energy in the final basis set = -1510.20252310
   15   -1510.2267321828      2.41E-09 Convergence criterion met
 Total energy in the final basis set = -1510.22673218
   14   -1510.2381517866      5.20E-09 Convergence criterion met
 Total energy in the final basis set = -1510.23815179
   14   -1510.2440092015      4.43E-09 Convergence criterion met
 Total energy in the final basis set = -1510.24400920
   14   -1510.2475232106      3.45E-09 Convergence criterion met
 Total energy in the final basis set = -1510.24752321
   13   -1510.2491997375      5.68E-09 Convergence criterion met
   11   -1510.2511772800      5.30E-09 Convergence criterion met
 Total energy in the final basis set = -1510.25117728
   11   -1510.2511913349      2.92E-09 Convergence criterion met
 Total energy in the final basis set = -1510.25119133
   10   -1510.2512029395      8.23E-09 Convergence criterion met
 Total energy in the final basis set = -1510.25120294
   10   -1510.2512012581      9.01E-09 Convergence criterion met
 Total energy in the final basis set = -1510.25120126
   10   -1510.2512042570      9.36E-09 Convergence criterion met
 Total energy in the final basis set = -1510.25120426
    9   -1510.2512054346      5.06E-09 Convergence criterion met
 Total energy in the final basis set = -1510.25120543

             Standard Nuclear Orientation (Angstroms)
    I     Atom           X                Y                Z
 ----------------------------------------------------------------
    1      O      -4.6183712879     1.4079289995     1.5430941345
    2      C      -4.1887929752     1.2716950793     0.3761402376
    3      C      -4.1484783262    -0.0622727733    -0.4489974349
    4      C      -2.9611223876    -0.3471028711    -1.4578344925
    5      C      -1.5283605591     0.2482688073    -1.1276694478
    6      O      -1.6258866961     1.5592290681    -0.5818417163
    7      C      -0.3156007406     2.2022565469    -0.2921890877
    8      C       0.7175645224     1.3092100823     0.4817944211
    9      O       1.9480245033     2.1286672433     0.6198954055
   10      C       2.9081024345     1.3399432593     1.3787010947
   11      C       4.0597038144     0.7346245323     0.4752117387
   12      C       3.9771861994    -0.8561865322     0.4005599520
   13      C       2.8385832649    -1.4655236147     1.2883929299
   14      O       1.6203643543    -1.5412772955     1.0152165019
   15      O      -3.9763114236     2.3685452244    -0.5210175048
   16      O       3.4195781716    -1.9420334987     2.5051560176
   17      O       2.8243088541     1.1790918561     2.6143549445
   18      C       2.3581348950    -2.4586819426     3.4012685734
   19      C       3.8771431059     1.1121627267    -1.0497689007
   20      C       5.1890946792     0.7200468093    -1.8374914113
   21      C       5.0340488681    -0.8431495879    -1.9355574044
   22      C       3.6845328352    -1.0624354721    -1.1476223459
   23      O       2.8754208423     0.1218399856    -1.5144290266
   24      H       5.0372435695     1.0537356893     0.8808230196
   25      H       4.9355324102    -1.3118041429     0.7054575874
   26      H       3.5038080321     2.1402982577    -1.2151394705
   27      H       5.1961756666     1.1896688289    -2.8338371469
   28      H       6.1004208474     1.0236434611    -1.2978943584
   29      H       4.9242003065    -1.1720797668    -2.9812385226
   30      H       5.8773106042    -1.3867231458    -1.4803859944
   31      H       3.1347792602    -1.9927210371    -1.3889082946
   32      O      -0.4619866125    -0.3502334015    -1.3976676791
   33      C      -4.1018249343     3.6494193499     0.2089525326
   34      C      -4.1735976889    -1.4030793853     0.4040731285
   35      C      -5.0434615983    -2.4413568449    -0.4040285843
   36      C      -4.1040827043    -2.6943587703    -1.6430444038
   37      C      -2.8009345331    -1.9092911461    -1.2179495477
   38      O      -2.8079105238    -1.9613376138     0.2674071326
   39      H      -5.0753601317    -0.0183012367    -1.0539895884
   40      H      -3.2329820842    -0.0769434014    -2.4949284934
   41      H      -3.3052672451     3.7600628001     0.9727555117
   42      H      -4.4423553879    -1.2611879030     1.4692178276
   43      H      -5.1867691611    -3.3618332568     0.1849339861
   44      H      -6.0312475373    -2.0432349357    -0.6865816975
   45      H      -3.8846838404    -3.7653788303    -1.7763725941
   46      H      -4.5295279962    -2.3045310741    -2.5821309308
   47      H      -1.8460571013    -2.3097619471    -1.6108109584
   48      H      -5.0864204312     3.7413159515     0.7118022115
   49      H      -3.9953333792     4.4452647534    -0.5508886945
   50      H       2.8761800119    -2.8407132405     4.2998618050
   51      H       1.7838399274    -3.2785516534     2.9235507982
   52      H       1.6512337284    -1.6555115839     3.6934308049
   53      H       0.3043778633     1.0198531381     1.4740391099
   54      H       0.9166295095     0.3878260049    -0.1116910061
   55      H      -0.5698948844     3.1043538947     0.3001822599
   56      H       0.1532807341     2.5284532722    -1.2473663748
 ----------------------------------------------------------------

    9   -1510.2512058016      7.44E-09 Convergence criterion met
 Total energy in the final basis set = -1510.25120580
 Final energy is   -1510.25120580165
 **  OPTIMIZATION CONVERGED  **

                    Orbital Energies (a.u.)
 --------------------------------------------------------------

 Alpha MOs
 -- Occupied --
-18.934 -18.933 -18.928 -18.898 -18.894 -18.886 -18.879 -18.872
-18.871 -18.868 -10.104 -10.097 -10.096 -10.095 -10.067 -10.059
-10.059 -10.058 -10.056 -10.052 -10.051 -10.049 -10.036 -10.035
-10.034 -10.032 -10.019 -10.018 -10.016 -10.015  -1.010  -1.009
 -1.003  -1.001  -0.969  -0.963  -0.935  -0.933  -0.930  -0.928
 -0.761  -0.757  -0.722  -0.719  -0.706  -0.699  -0.690  -0.659
 -0.657  -0.605  -0.594  -0.580  -0.545  -0.539  -0.536  -0.531
 -0.509  -0.504  -0.479  -0.467  -0.458  -0.454  -0.449  -0.440
 -0.431  -0.427  -0.425  -0.409  -0.407  -0.405  -0.403  -0.394
 -0.390  -0.375  -0.371  -0.365  -0.362  -0.353  -0.347  -0.341
 -0.341  -0.339  -0.333  -0.330  -0.326  -0.322  -0.319  -0.311
 -0.306  -0.305  -0.302  -0.295  -0.289  -0.284  -0.282  -0.272
 -0.265  -0.252  -0.249  -0.243  -0.234  -0.233  -0.227  -0.175
 -0.174  -0.168  -0.157  -0.156  -0.149  -0.148  -0.143  -0.139
 -0.135

          Ground-State Mulliken Net Atomic Charges

     Atom                 Charge (a.u.)
  ----------------------------------------
      1 O                    -0.216952
      2 C                     0.213047
      3 C                    -0.080806
      4 C                    -0.074499
      5 C                     0.214268
      6 O                    -0.165864
      7 C                    -0.046381
      8 C                    -0.063419
      9 O                    -0.200212
     10 C                     0.219651
     11 C                    -0.080774
     12 C                    -0.080827
     13 C                     0.204715
     14 O                    -0.211058
     15 O                    -0.163987
     16 O                    -0.166877
     17 O                    -0.185234
     18 C                    -0.128338
     19 C                     0.023206
     20 C                    -0.144741
     21 C                    -0.143573
     22 C                     0.025474
     23 O                    -0.186578
     24 H                     0.084525
     25 H                     0.086357
     26 H                     0.090634
     27 H                     0.077679
     28 H                     0.072990
     29 H                     0.078107
     30 H                     0.073367
     31 H                     0.087097
     32 O                    -0.207288
     33 C                    -0.127031
     34 C                     0.021945
     35 C                    -0.141465
     36 C                    -0.146470
     37 C                     0.022719
     38 O                    -0.191621
     39 H                     0.082736
     40 H                     0.084988
     41 H                     0.086682
     42 H                     0.088966
     43 H                     0.077080
     44 H                     0.072005
     45 H                     0.077600
     46 H                     0.072133
     47 H                     0.092056
     48 H                     0.088366
     49 H                     0.088763
     50 H                     0.090515
     51 H                     0.090020
     52 H                     0.092373
     53 H                     0.078086
     54 H                     0.119966
     55 H                     0.088664
     56 H                     0.087219
  ----------------------------------------
  Sum of atomic charges =     0.000000

                    Cartesian Multipole Moments
 -----------------------------------------------------------------
    Charge (ESU x 10^10)
                 0.0000
    Dipole Moment (Debye)
         X       0.6349      Y      -0.1168      Z      -1.8871
       Tot       1.9945
    Quadrupole Moments (Debye-Ang)
        XX    -141.6522     XY      -1.5327     YY    -151.6984
        XZ       3.2589     YZ      -2.8440     ZZ    -161.8684

 Total job time:  62.54s(wall), 2978.62s(cpu)
        *  Thank you very much for using Q-Chem.  Have a nice day.  *
