 Q-Chem 5.0, Q-Chem, Inc., Pleasanton, CA (2017)
 Q-Chem 5.0.1 for Intel X86 EM64T Linux

User input:
--------------------------------------------------------------
$molecule
0  1
O -4.6183712879 1.4079289995 1.5430941345
C -4.1887929752 1.2716950793 0.3761402376
C -4.1484783262 -0.0622727733 -0.4489974349
C -2.9611223876 -0.3471028711 -1.4578344925
C -1.5283605591 0.2482688073 -1.1276694478
O -1.6258866961 1.5592290681 -0.5818417163
C -0.3156007406 2.2022565469 -0.2921890877
C 0.7175645224 1.3092100823 0.4817944211
O 1.9480245033 2.1286672433 0.6198954055
C 2.9081024345 1.3399432593 1.3787010947
C 4.0597038144 0.7346245323 0.4752117387
C 3.9771861994 -0.8561865322 0.400559952
C 2.8385832649 -1.4655236147 1.2883929299
O 1.6203643543 -1.5412772955 1.0152165019
O -3.9763114236 2.3685452244 -0.5210175048
O 3.4195781716 -1.9420334987 2.5051560176
O 2.8243088541 1.1790918561 2.6143549445
C 2.358134895 -2.4586819426 3.4012685734
C 3.8771431059 1.1121627267 -1.0497689007
C 5.1890946792 0.7200468093 -1.8374914113
C 5.0340488681 -0.8431495879 -1.9355574044
C 3.6845328352 -1.0624354721 -1.1476223459
O 2.8754208423 0.1218399856 -1.5144290266
H 5.0372435695 1.0537356893 0.8808230196
H 4.9355324102 -1.3118041429 0.7054575874
H 3.5038080321 2.1402982577 -1.2151394705
H 5.1961756666 1.1896688289 -2.8338371469
H 6.1004208474 1.0236434611 -1.2978943584
H 4.9242003065 -1.1720797668 -2.9812385226
H 5.8773106042 -1.3867231458 -1.4803859944
H 3.1347792602 -1.9927210371 -1.3889082946
O -0.4619866125 -0.3502334015 -1.3976676791
C -4.1018249343 3.6494193499 0.2089525326
C -4.1735976889 -1.4030793853 0.4040731285
C -5.0434615983 -2.4413568449 -0.4040285843
C -4.1040827043 -2.6943587703 -1.6430444038
C -2.8009345331 -1.9092911461 -1.2179495477
O -2.8079105238 -1.9613376138 0.2674071326
H -5.0753601317 -0.0183012367 -1.0539895884
H -3.2329820842 -0.0769434014 -2.4949284934
H -3.3052672451 3.7600628001 0.9727555117
H -4.4423553879 -1.261187903 1.4692178276
H -5.1867691611 -3.3618332568 0.1849339861
H -6.0312475373 -2.0432349357 -0.6865816975
H -3.8846838404 -3.7653788303 -1.7763725941
H -4.5295279962 -2.3045310741 -2.5821309308
H -1.8460571013 -2.3097619471 -1.6108109584
H -5.0864204312 3.7413159515 0.7118022115
H -3.9953333792 4.4452647534 -0.5508886945
H 2.8761800119 -2.8407132405 4.299861805
H 1.7838399274 -3.2785516534 2.9235507982
H 1.6512337284 -1.6555115839 3.6934308049
H 0.3043778633 1.0198531381 1.4740391099
H 0.9166295095 0.3878260049 -0.1116910061
H -0.5698948844 3.1043538947 0.3001822599
H 0.1532807341 2.5284532722 -1.2473663748
$end

$rem
JOBTYPE                   OPT
METHOD                    B3LYP
DFT_D                     d3_op
BASIS                     STO-3G
GEOM_OPT_MAX_CYCLES       100
GEOM_OPT_TOL_GRADIENT     300
GEOM_OPT_TOL_DISPLACEMENT 1200
GEOM_OPT_TOL_ENERGY       100
SYMMETRY                  False
THRESH                    12
SCF_CONVERGENCE           8
MAX_SUB_FILE_NUM          128
MEM_STATIC                400
MEM_TOTAL                 4000
$end
--------------------------------------------------------------

   16   -1510.2513251321      7.41E-09 Convergence criterion met
 Total energy in the final basis set = -1510.25132513
   14   -1510.2547829913      5.11E-09 Convergence criterion met
 Total energy in the final basis set = -1510.25478299
   13   -1510.2580389718      6.41E-09 Convergence criterion met
 Total energy in the final basis set = -1510.25803897
   13   -1510.2616103736      9.41E-09 Convergence criterion met
 Total energy in the final basis set = -1510.26161037
   14   -1510.2649420824      6.33E-09 Convergence criterion met
 Total energy in the final basis set = -1510.26494208
   14   -1510.2678378229      6.07E-09 Convergence criterion met
 Total energy in the final basis set = -1510.26783782
   14   -1510.2699497964      5.35E-09 Convergence criterion met
 Total energy in the final basis set = -1510.26994980
   13   -1510.2724459838      7.03E-09 Convergence criterion met
   11   -1510.2990589259      5.62E-09 Convergence criterion met
 Total energy in the final basis set = -1510.29905893
    9   -1510.2990631209      8.31E-09 Convergence criterion met
 Total energy in the final basis set = -1510.29906312
   11   -1510.2990652448      2.25E-09 Convergence criterion met
 Total energy in the final basis set = -1510.29906524
   11   -1510.2990589829      3.80E-09 Convergence criterion met
 Total energy in the final basis set = -1510.29905898
   10   -1510.2990593203      9.88E-09 Convergence criterion met
 Total energy in the final basis set = -1510.29905932
   10   -1510.2990579616      7.28E-09 Convergence criterion met
 Total energy in the final basis set = -1510.29905796

             Standard Nuclear Orientation (Angstroms)
    I     Atom           X                Y                Z
 ----------------------------------------------------------------
    1      O      -1.6607402088     0.3969706536     1.3608231147
    2      C      -2.8212763539     0.5643188899     0.9070433982
    3      C      -3.8144816536    -0.5217981900     0.3761982894
    4      C      -3.3991710616    -1.1925429176    -1.0035051224
    5      C      -2.0107414001    -0.7385571737    -1.5739751026
    6      O      -1.9074268666     0.6864492808    -1.5110093581
    7      C      -0.5261854956     1.1191775979    -1.8549121774
    8      C       0.1296314856     1.7773014390    -0.5885379807
    9      O       1.5714818727     1.4452960743    -0.6473053984
   10      C       2.1931466173     1.6321090192     0.6296923827
   11      C       3.6688104201     1.1248041289     0.5006133872
   12      C       3.7632564042    -0.3241502860    -0.1417534148
   13      C       2.3644087766    -0.9869440381    -0.4223544244
   14      O       1.9308273697    -1.4031865725    -1.5190076357
   15      O      -3.4923487880     1.8221027959     0.8794406963
   16      O       1.6772864297    -1.0831497056     0.8274787932
   17      O       1.6262243734     2.1272450211     1.6267324673
   18      C       0.3523533432    -1.7345091763     0.6642747784
   19      C       4.4748630701     1.9697446923    -0.5804630337
   20      C       6.0118533133     1.6231051286    -0.4482504229
   21      C       6.0657320065     0.2050590654    -1.1310736960
   22      C       4.5444081862    -0.0168752073    -1.4844097337
   23      O       4.0817283037     1.3402514601    -1.8599622164
   24      H       4.1377046913     1.1679394292     1.4989029565
   25      H       4.3393911713    -1.0007818897     0.5158167689
   26      H       4.2354912878     3.0509086740    -0.5898655053
   27      H       6.6206809395     2.3598413841    -0.9960484768
   28      H       6.3426310875     1.6031515905     0.6026075578
   29      H       6.6756219623     0.2241808701    -2.0483424201
   30      H       6.4589205814    -0.5767965665    -0.4619800519
   31      H       4.3321137830    -0.7350885563    -2.3001493698
   32      O      -1.1178101039    -1.4930623522    -2.0200725087
   33      C      -2.6237341387     2.9064971912     1.3976018123
   34      C      -3.8512484990    -1.8038135344     1.3210479187
   35      C      -5.1659436473    -2.6150092898     0.9947518817
   36      C      -4.7841524010    -3.2723581199    -0.3835854219
   37      C      -3.3208640173    -2.7204625324    -0.5882335819
   38      O      -2.7700860154    -2.6598712005     0.7863920822
   39      H      -4.8079131672    -0.0473502501     0.2949751841
   40      H      -4.1733459006    -1.0092163690    -1.7715273034
   41      H      -2.2002956867     3.4833768234     0.5513302850
   42      H      -3.6798057999    -1.5884451803     2.3936122903
   43      H      -5.3455009170    -3.3776241649     1.7691541736
   44      H      -6.0519231630    -1.9638661771     0.9279868066
   45      H      -4.7762180916    -4.3719347432    -0.3186010545
   46      H      -5.4583372152    -2.9711658179    -1.2012477777
   47      H      -2.6592133654    -3.3200937395    -1.2436054273
   48      H      -1.7961174924     2.4856871628     2.0025710189
   49      H      -3.2571012813     3.5717837699     2.0141719121
   50      H       0.3371781542    -2.6615317487     1.2689815586
   51      H       0.1788614741    -1.9754039854    -0.4043129369
   52      H      -0.4395640709    -1.0378527800     1.0238431594
   53      H      -0.0177583734     2.8785878850    -0.5835298768
   54      H      -0.3435374844     1.3515146421     0.3291427556
   55      H      -0.5884798272     1.8299860846    -2.7034058590
   56      H       0.0635005905     0.2232863595    -2.1549586037
 ----------------------------------------------------------------

   10   -1510.2990573907      6.29E-09 Convergence criterion met
 Total energy in the final basis set = -1510.29905739
 Final energy is   -1510.29905739069
 **  OPTIMIZATION CONVERGED  **

                    Orbital Energies (a.u.)
 --------------------------------------------------------------

 Alpha MOs
 -- Occupied --
-18.949 -18.940 -18.924 -18.909 -18.894 -18.889 -18.888 -18.880
-18.866 -18.855 -10.116 -10.107 -10.090 -10.083 -10.067 -10.067
-10.064 -10.063 -10.057 -10.054 -10.049 -10.047 -10.046 -10.029
-10.026 -10.025 -10.024 -10.018 -10.015 -10.013  -1.025  -1.017
 -1.004  -0.988  -0.977  -0.962  -0.948  -0.944  -0.928  -0.916
 -0.770  -0.755  -0.731  -0.719  -0.713  -0.700  -0.691  -0.670
 -0.635  -0.613  -0.594  -0.577  -0.549  -0.543  -0.537  -0.529
 -0.518  -0.505  -0.486  -0.469  -0.462  -0.457  -0.452  -0.443
 -0.436  -0.427  -0.422  -0.419  -0.417  -0.409  -0.399  -0.394
 -0.388  -0.378  -0.372  -0.365  -0.358  -0.356  -0.354  -0.345
 -0.341  -0.337  -0.336  -0.329  -0.325  -0.324  -0.317  -0.314
 -0.309  -0.304  -0.300  -0.296  -0.292  -0.283  -0.278  -0.276
 -0.265  -0.258  -0.253  -0.240  -0.238  -0.227  -0.226  -0.188
 -0.181  -0.173  -0.165  -0.163  -0.151  -0.149  -0.146  -0.137
 -0.135

          Ground-State Mulliken Net Atomic Charges

     Atom                 Charge (a.u.)
  ----------------------------------------
      1 O                    -0.218046
      2 C                     0.224559
      3 C                    -0.079373
      4 C                    -0.078149
      5 C                     0.215162
      6 O                    -0.175913
      7 C                    -0.058296
      8 C                    -0.059920
      9 O                    -0.171552
     10 C                     0.213370
     11 C                    -0.078351
     12 C                    -0.077858
     13 C                     0.213466
     14 O                    -0.218451
     15 O                    -0.162723
     16 O                    -0.180054
     17 O                    -0.213915
     18 C                    -0.156484
     19 C                     0.025422
     20 C                    -0.144081
     21 C                    -0.143912
     22 C                     0.024258
     23 O                    -0.187238
     24 H                     0.084266
     25 H                     0.082406
     26 H                     0.080178
     27 H                     0.076438
     28 H                     0.072969
     29 H                     0.076575
     30 H                     0.072603
     31 H                     0.089831
     32 O                    -0.201698
     33 C                    -0.134152
     34 C                     0.025542
     35 C                    -0.143524
     36 C                    -0.144219
     37 C                     0.024168
     38 O                    -0.187584
     39 H                     0.089223
     40 H                     0.087977
     41 H                     0.087984
     42 H                     0.085162
     43 H                     0.079591
     44 H                     0.074540
     45 H                     0.080066
     46 H                     0.074384
     47 H                     0.093846
     48 H                     0.105936
     49 H                     0.090880
     50 H                     0.076970
     51 H                     0.098936
     52 H                     0.102219
     53 H                     0.075893
     54 H                     0.107451
     55 H                     0.086362
     56 H                     0.116857
  ----------------------------------------
  Sum of atomic charges =     0.000000

                    Cartesian Multipole Moments
 -----------------------------------------------------------------
    Charge (ESU x 10^10)
                 0.0000
    Dipole Moment (Debye)
         X      -2.5906      Y       0.8417      Z       0.5670
       Tot       2.7823
    Quadrupole Moments (Debye-Ang)
        XX    -133.3753     XY       3.3816     YY    -156.1999
        XZ       2.4792     YZ      -1.0980     ZZ    -165.8714

 Total job time:  200.35s(wall), 9538.20s(cpu)
        *  Thank you very much for using Q-Chem.  Have a nice day.  *
