 Q-Chem 5.0, Q-Chem, Inc., Pleasanton, CA (2017)
 Q-Chem 5.0.1 for Intel X86 EM64T Linux

User input:
--------------------------------------------------------------
$molecule
0  1
O -4.4872549854 2.1535536167 1.9975162834
C -4.0690968851 1.6559366559 0.9274702767
C -4.6637469846 0.3795132832 0.2350831504
C -3.9932188216 -0.1976715598 -1.0667083606
C -2.4125659735 -0.2619037975 -1.0960797323
O -1.871052177 0.275293092 0.105501573
C -0.3899520181 0.3721637239 0.1262737533
C 0.3959035531 -0.9053154279 -0.3396188704
O 1.8259869111 -0.5195102582 -0.2610191215
C 2.6737011694 -1.6523867788 -0.4211994021
C 4.185610788 -1.2317299082 -0.3967554814
C 4.5688638572 0.304956239 -0.5322081113
C 3.3900684147 1.3428488981 -0.5670875796
O 2.8436175325 1.922512165 0.3962512339
O -3.2158770499 2.3567649674 0.0108817946
O 3.0646567835 1.5771813234 -1.9475229675
O 2.2548353664 -2.8247086045 -0.5447468604
C 1.9554181317 2.5503993201 -2.0585584926
C 4.8551844397 -1.5855421629 1.0080438224
C 6.4148165145 -1.7134299633 0.7943842845
C 6.8185924814 -0.2029241717 0.6192248975
C 5.4194834362 0.5093383092 0.7946911293
O 4.7127234903 -0.3360568141 1.7841319528
H 4.6746158509 -1.8123255699 -1.2001221931
H 5.1776697171 0.4605296656 -1.440643902
H 4.3799638686 -2.4344497767 1.5375274192
H 6.8872537562 -2.1578032782 1.6850351197
H 6.6666009949 -2.3286853329 -0.0840827486
H 7.5201965942 0.1227476475 1.4035427947
H 7.26645819 0.0066785201 -0.3651760026
H 5.4595535508 1.5578500183 1.1476817149
O -1.7549526423 -0.7032876166 -2.0664418885
C -2.743129577 3.6243880962 0.6116618201
C -4.8669485637 -0.9387432793 1.1105884632
C -6.2706247299 -1.522324988 0.6926187493
C -5.9693220389 -1.9229692179 -0.8015626343
C -4.4013625005 -1.7280468407 -0.87411912
O -3.9383042448 -1.9351948553 0.5249252716
H -5.6736970493 0.72156287 -0.0665869473
H -4.365453654 0.2658237527 -1.9969687039
H -3.3324338947 3.8459997725 1.5244600037
H -4.690270545 -0.8174764102 2.1968383406
H -6.5150525029 -2.4070257748 1.3027222591
H -7.0849644721 -0.7861752898 0.7870470276
H -6.2392443725 -2.9707925723 -1.0065013111
H -6.4936593886 -1.277993507 -1.5252772182
H -3.874254006 -2.4168511176 -1.5629106419
H -2.8694603162 4.429381165 -0.1373401985
H -1.6698219492 3.5327680649 0.8739870263
H 1.0827416236 2.0576844581 -2.5320697194
H 2.2826056337 3.3966777438 -2.6938515988
H 1.6846932608 2.915396281 -1.0465362273
H 0.1788355369 -1.7737017284 0.3181226428
H 0.092175633 -1.1563117231 -1.3786357747
H -0.1320784639 0.614743327 1.17703327
H -0.0751857942 1.2250383038 -0.5136878234
$end

$rem
JOBTYPE                   OPT
METHOD                    B3LYP
DFT_D                     d3_op
BASIS                     STO-3G
GEOM_OPT_MAX_CYCLES       100
GEOM_OPT_TOL_GRADIENT     300
GEOM_OPT_TOL_DISPLACEMENT 1200
GEOM_OPT_TOL_ENERGY       100
SYMMETRY                  False
THRESH                    12
SCF_CONVERGENCE           8
MAX_SUB_FILE_NUM          128
MEM_STATIC                400
MEM_TOTAL                 4000
$end
--------------------------------------------------------------

   16   -1510.2629303319      5.37E-09 Convergence criterion met
 Total energy in the final basis set = -1510.26293033
   13   -1510.2670476446      9.06E-09 Convergence criterion met
 Total energy in the final basis set = -1510.26704764
   13   -1510.2705340496      9.61E-09 Convergence criterion met
 Total energy in the final basis set = -1510.27053405
   13   -1510.2738844439      7.66E-09 Convergence criterion met
 Total energy in the final basis set = -1510.27388444
   13   -1510.2768164584      4.70E-09 Convergence criterion met
 Total energy in the final basis set = -1510.27681646
   14   -1510.2797662255      4.65E-09 Convergence criterion met
 Total energy in the final basis set = -1510.27976623
   13   -1510.2823296000      7.48E-09 Convergence criterion met
 Total energy in the final basis set = -1510.28232960
   13   -1510.2844577534      4.73E-09 Convergence criterion met
   11   -1510.2999948299      3.01E-09 Convergence criterion met
 Total energy in the final basis set = -1510.29999483
   10   -1510.3000039119      8.88E-09 Convergence criterion met
 Total energy in the final basis set = -1510.30000391
   11   -1510.3000020912      2.97E-09 Convergence criterion met
 Total energy in the final basis set = -1510.30000209
   11   -1510.3000020000      3.48E-09 Convergence criterion met
 Total energy in the final basis set = -1510.30000200
    9   -1510.3000017644      8.07E-09 Convergence criterion met
 Total energy in the final basis set = -1510.30000176
    9   -1510.3000013733      4.74E-09 Convergence criterion met
 Total energy in the final basis set = -1510.30000137

             Standard Nuclear Orientation (Angstroms)
    I     Atom           X                Y                Z
 ----------------------------------------------------------------
    1      O      -3.3177526110     1.6124053140     2.1629645822
    2      C      -3.1517567810     1.4577217060     0.9347665851
    3      C      -4.0745443361     0.6828254004    -0.0723880932
    4      C      -3.2892095238    -0.4001520642    -0.9274658277
    5      C      -1.7662295234    -0.4790031056    -0.5700545743
    6      O      -1.6402097186    -0.8446617838     0.8051516325
    7      C      -0.2150406968    -0.8657590636     1.2167458175
    8      C       0.5495282925    -2.1542222164     0.7203281897
    9      O       2.0005542585    -1.8442766218     0.7092259985
   10      C       2.4222045501    -1.5084124115    -0.6181611880
   11      C       3.8571870224    -0.8729962458    -0.5664470168
   12      C       3.7987061360     0.7212326116    -0.6096463848
   13      C       2.3367537489     1.2775122372    -0.7088168617
   14      O       1.5029761585     1.3639856024     0.2277967665
   15      O      -2.0529388268     1.9805460717     0.1813091092
   16      O       2.0912921316     1.6702423453    -2.0485044716
   17      O       1.7267168237    -1.6820650460    -1.6439374077
   18      C       0.6697438938     2.0686737017    -2.2306131061
   19      C       4.5927221587    -1.1029797567     0.8179032868
   20      C       6.1161855501    -0.7175149458     0.6474736075
   21      C       6.0351324785     0.8541891373     0.6345250396
   22      C       4.4792043143     1.0783568905     0.7799073134
   23      O       4.0507619905    -0.0210470930     1.6727880657
   24      H       4.4378674531    -1.2600324269    -1.4228928788
   25      H       4.3719542110     1.1116296779    -1.4687427512
   26      H       4.4004734170    -2.0913580963     1.2765167305
   27      H       6.7037950303    -1.0851469974     1.5035093289
   28      H       6.5471975950    -1.1288847242    -0.2793446929
   29      H       6.5676423321     1.2930848850     1.4933227992
   30      H       6.4355350051     1.2948265031    -0.2924773638
   31      H       4.1760694355     2.0568404153     1.1999988724
   32      O      -0.7976118050    -0.3002752310    -1.3443464771
   33      C      -1.0778548315     2.6761626312     1.0560361506
   34      C      -5.1350124233    -0.2244616210     0.6746828426
   35      C      -6.2516798916    -0.6354825076    -0.3629347627
   36      C      -5.4820081089    -1.7025276507    -1.2283858352
   37      C      -4.0731850400    -1.7200289166    -0.5105166467
   38      O      -4.4024086485    -1.4900007600     0.9130042064
   39      H      -4.5639450203     1.4208399936    -0.7343353756
   40      H      -3.3693240423    -0.1983440124    -2.0098870844
   41      H      -1.2841768823     2.4357848479     2.1172370483
   42      H      -5.4937203026     0.1999122377     1.6325928109
   43      H      -7.1149137407    -1.0824434200     0.1554435767
   44      H      -6.6013217801     0.2230112791    -0.9582360809
   45      H      -5.9583723308    -2.6939702821    -1.1676413547
   46      H      -5.4016991580    -1.4134292498    -2.2884276669
   47      H      -3.4938335486    -2.6562864707    -0.6290401092
   48      H      -1.1664884153     3.7709507483     0.9069590014
   49      H      -0.0637089804     2.3273452694     0.7583511298
   50      H      -0.0086221766     1.2317347957    -1.9355493412
   51      H       0.5612719256     2.2902048817    -3.3075473314
   52      H       0.4298057664     2.9761005957    -1.6411483499
   53      H       0.3937035602    -3.0135746167     1.4018383596
   54      H       0.2285900315    -2.4140905444    -0.3115091822
   55      H      -0.2320031698    -0.8293545864     2.3232513597
   56      H       0.3347589570     0.0254175482     0.8268859129
 ----------------------------------------------------------------

    9   -1510.3000019205      3.51E-09 Convergence criterion met
 Total energy in the final basis set = -1510.30000192
 Final energy is   -1510.30000192047
 **  OPTIMIZATION CONVERGED  **

                    Orbital Energies (a.u.)
 --------------------------------------------------------------

 Alpha MOs
 -- Occupied --
-18.943 -18.932 -18.930 -18.924 -18.888 -18.885 -18.883 -18.876
-18.874 -18.872 -10.109 -10.101 -10.097 -10.095 -10.061 -10.061
-10.059 -10.059 -10.055 -10.053 -10.046 -10.041 -10.039 -10.038
-10.036 -10.035 -10.021 -10.020 -10.019 -10.018  -1.018  -1.013
 -1.008  -1.000  -0.970  -0.967  -0.941  -0.937  -0.932  -0.930
 -0.765  -0.761  -0.726  -0.722  -0.711  -0.704  -0.688  -0.658
 -0.649  -0.612  -0.595  -0.578  -0.548  -0.543  -0.538  -0.535
 -0.514  -0.507  -0.480  -0.476  -0.462  -0.460  -0.451  -0.441
 -0.433  -0.431  -0.427  -0.418  -0.412  -0.406  -0.401  -0.397
 -0.380  -0.378  -0.369  -0.366  -0.362  -0.359  -0.352  -0.349
 -0.343  -0.337  -0.332  -0.329  -0.326  -0.323  -0.317  -0.311
 -0.308  -0.305  -0.303  -0.301  -0.291  -0.286  -0.282  -0.279
 -0.271  -0.259  -0.245  -0.242  -0.237  -0.234  -0.232  -0.190
 -0.176  -0.170  -0.161  -0.159  -0.156  -0.151  -0.148  -0.143
 -0.141

          Ground-State Mulliken Net Atomic Charges

     Atom                 Charge (a.u.)
  ----------------------------------------
      1 O                    -0.211555
      2 C                     0.214320
      3 C                    -0.077913
      4 C                    -0.078732
      5 C                     0.219444
      6 O                    -0.168194
      7 C                    -0.062445
      8 C                    -0.056825
      9 O                    -0.169076
     10 C                     0.205292
     11 C                    -0.077414
     12 C                    -0.078440
     13 C                     0.219221
     14 O                    -0.221831
     15 O                    -0.178738
     16 O                    -0.161435
     17 O                    -0.206691
     18 C                    -0.143522
     19 C                     0.026067
     20 C                    -0.144486
     21 C                    -0.143718
     22 C                     0.025465
     23 O                    -0.184744
     24 H                     0.085958
     25 H                     0.087836
     26 H                     0.089407
     27 H                     0.078247
     28 H                     0.073410
     29 H                     0.078280
     30 H                     0.073649
     31 H                     0.084179
     32 O                    -0.218870
     33 C                    -0.150253
     34 C                     0.024575
     35 C                    -0.143954
     36 C                    -0.143941
     37 C                     0.026177
     38 O                    -0.185375
     39 H                     0.083838
     40 H                     0.084349
     41 H                     0.094574
     42 H                     0.090342
     43 H                     0.077926
     44 H                     0.072728
     45 H                     0.077706
     46 H                     0.073313
     47 H                     0.082305
     48 H                     0.075498
     49 H                     0.109790
     50 H                     0.119894
     51 H                     0.086728
     52 H                     0.081316
     53 H                     0.085905
     54 H                     0.099945
     55 H                     0.089456
     56 H                     0.111009
  ----------------------------------------
  Sum of atomic charges =     0.000000

                    Cartesian Multipole Moments
 -----------------------------------------------------------------
    Charge (ESU x 10^10)
                 0.0000
    Dipole Moment (Debye)
         X       1.0634      Y       0.5720      Z      -2.0230
       Tot       2.3559
    Quadrupole Moments (Debye-Ang)
        XX    -138.2249     XY       0.2536     YY    -153.5980
        XZ       7.9893     YZ      -2.0085     ZZ    -168.9881

 Total job time:  185.14s(wall), 8828.41s(cpu)
        *  Thank you very much for using Q-Chem.  Have a nice day.  *
