 Q-Chem 5.0, Q-Chem, Inc., Pleasanton, CA (2017)
 Q-Chem 5.0.1 for Intel X86 EM64T Linux

User input:
--------------------------------------------------------------
$molecule
0  1
O -3.94934 -3.66094 2.70899
C -3.26408 -4.56952 2.26188
C -3.36658 -6.02376 2.66595
C -2.35212 -6.9985 2.04579
C -1.23757 -6.38279 1.22923
O -1.39218 -5.02661 1.18125
C -0.44166 -4.38135 0.32721
C 0.96324 -4.8981 0.61934
O 1.90723 -4.27755 -0.26761
C 3.21325 -4.48116 0.03569
C 4.15441 -3.85179 -0.96369
C 3.49621 -3.39413 -2.2735
C 1.98377 -3.29988 -2.25526
O 1.33899 -2.31079 -1.9382
O -3.53591 -4.55627 0.90017
O 1.36115 -4.27888 -2.97131
O 3.6035 -4.98194 1.08297
C 0.02839 -4.3148 -3.3361
C 4.8104 -2.54912 -0.48033
C 6.11533 -2.32446 -1.24192
C 5.5836 -1.98511 -2.62083
C 4.07603 -1.9646 -2.33844
O 3.98743 -1.53426 -0.99981
H 4.93345 -4.61994 -1.17191
H 3.80033 -4.01034 -3.14943
H 4.98818 -2.52628 0.61695
H 6.59084 -1.41457 -0.81025
H 6.83942 -3.16675 -1.20753
H 5.94662 -0.96985 -2.8955
H 5.83922 -2.71205 -3.42192
H 3.55085 -1.33389 -3.08964
O -0.77889 -7.04075 0.30123
C -3.74216 -3.44934 0.08757
C -3.03263 -6.19472 4.16019
C -3.62559 -7.5022 4.68548
C -2.69918 -8.51018 4.03983
C -1.72179 -7.57159 3.3266
O -1.65088 -6.45232 4.17515
H -4.41804 -6.34331 2.48087
H -2.83782 -7.79241 1.43412
H -3.60124 -2.49148 0.6329
H -3.37751 -5.34245 4.78626
H -3.46284 -7.52832 5.78677
H -4.70664 -7.64133 4.46887
H -2.16845 -9.06575 4.84501
H -3.18527 -9.22651 3.34269
H -0.76 -8.09577 3.12937
H -4.77001 -3.48688 -0.32772
H -3.01999 -3.47474 -0.75371
H -0.43069 -5.24802 -2.95097
H -0.04251 -4.32475 -4.44309
H -0.54512 -3.44379 -2.95361
H 1.18121 -4.60259 1.67114
H 1.14686 -5.98356 0.54084
H -0.50179 -3.28103 0.46444
H -0.69491 -4.61333 -0.72418
$end

$opt
CONSTRAINT
tors           1           2           3           4    -176.358
tors           3           4           5           6      -1.675
tors           4           5           6           7    -174.801
tors           5           6           7           8     -47.506
tors           6           7           8           9    +178.257
tors           7           8           9          10    +169.388
tors           8           9          10          11    +177.657
tors           9          10          11          12     -13.382
tors          11          12          13          14     +89.466
ENDCONSTRAINT
$end

$rem
JOBTYPE                   OPT
METHOD                    B3LYP
DFT_D                     d3_op
BASIS                     STO-3G
GEOM_OPT_MAX_CYCLES       100
GEOM_OPT_TOL_GRADIENT     300
GEOM_OPT_TOL_DISPLACEMENT 1200
GEOM_OPT_TOL_ENERGY       100
SYMMETRY                  False
THRESH                    12
SCF_CONVERGENCE           8
MAX_SUB_FILE_NUM          128
MEM_STATIC                400
MEM_TOTAL                 4000
$end
--------------------------------------------------------------

   16   -1510.0609576194      5.65E-09 Convergence criterion met
 Total energy in the final basis set = -1510.06095762
   15   -1510.1400914473      2.15E-09 Convergence criterion met
 Total energy in the final basis set = -1510.14009145
   15   -1510.1854086401      3.64E-09 Convergence criterion met
 Total energy in the final basis set = -1510.18540864
   15   -1510.2151704263      2.33E-09 Convergence criterion met
 Total energy in the final basis set = -1510.21517043
   14   -1510.2314748370      9.80E-09 Convergence criterion met
 Total energy in the final basis set = -1510.23147484
   14   -1510.2425682309      3.70E-09 Convergence criterion met
 Total energy in the final basis set = -1510.24256823
   13   -1510.2496885162      4.50E-09 Convergence criterion met
 Total energy in the final basis set = -1510.24968852
   13   -1510.2545325124      8.53E-09 Convergence criterion met
    9   -1510.2629128866      7.32E-09 Convergence criterion met
 Total energy in the final basis set = -1510.26291289
    9   -1510.2629152047      2.66E-09 Convergence criterion met
 Total energy in the final basis set = -1510.26291520
    9   -1510.2629168772      4.22E-09 Convergence criterion met
 Total energy in the final basis set = -1510.26291688
    9   -1510.2629185573      5.06E-09 Convergence criterion met
 Total energy in the final basis set = -1510.26291856
    9   -1510.2629203988      5.81E-09 Convergence criterion met
 Total energy in the final basis set = -1510.26292040
    9   -1510.2629214494      5.53E-09 Convergence criterion met
 Total energy in the final basis set = -1510.26292145

             Standard Nuclear Orientation (Angstroms)
    I     Atom           X                Y                Z
 ----------------------------------------------------------------
    1      O      -4.4872549854     2.1535536167     1.9975162834
    2      C      -4.0690968851     1.6559366559     0.9274702767
    3      C      -4.6637469846     0.3795132832     0.2350831504
    4      C      -3.9932188216    -0.1976715598    -1.0667083606
    5      C      -2.4125659735    -0.2619037975    -1.0960797323
    6      O      -1.8710521770     0.2752930920     0.1055015730
    7      C      -0.3899520181     0.3721637239     0.1262737533
    8      C       0.3959035531    -0.9053154279    -0.3396188704
    9      O       1.8259869111    -0.5195102582    -0.2610191215
   10      C       2.6737011694    -1.6523867788    -0.4211994021
   11      C       4.1856107880    -1.2317299082    -0.3967554814
   12      C       4.5688638572     0.3049562390    -0.5322081113
   13      C       3.3900684147     1.3428488981    -0.5670875796
   14      O       2.8436175325     1.9225121650     0.3962512339
   15      O      -3.2158770499     2.3567649674     0.0108817946
   16      O       3.0646567835     1.5771813234    -1.9475229675
   17      O       2.2548353664    -2.8247086045    -0.5447468604
   18      C       1.9554181317     2.5503993201    -2.0585584926
   19      C       4.8551844397    -1.5855421629     1.0080438224
   20      C       6.4148165145    -1.7134299633     0.7943842845
   21      C       6.8185924814    -0.2029241717     0.6192248975
   22      C       5.4194834362     0.5093383092     0.7946911293
   23      O       4.7127234903    -0.3360568141     1.7841319528
   24      H       4.6746158509    -1.8123255699    -1.2001221931
   25      H       5.1776697171     0.4605296656    -1.4406439020
   26      H       4.3799638686    -2.4344497767     1.5375274192
   27      H       6.8872537562    -2.1578032782     1.6850351197
   28      H       6.6666009949    -2.3286853329    -0.0840827486
   29      H       7.5201965942     0.1227476475     1.4035427947
   30      H       7.2664581900     0.0066785201    -0.3651760026
   31      H       5.4595535508     1.5578500183     1.1476817149
   32      O      -1.7549526423    -0.7032876166    -2.0664418885
   33      C      -2.7431295770     3.6243880962     0.6116618201
   34      C      -4.8669485637    -0.9387432793     1.1105884632
   35      C      -6.2706247299    -1.5223249880     0.6926187493
   36      C      -5.9693220389    -1.9229692179    -0.8015626343
   37      C      -4.4013625005    -1.7280468407    -0.8741191200
   38      O      -3.9383042448    -1.9351948553     0.5249252716
   39      H      -5.6736970493     0.7215628700    -0.0665869473
   40      H      -4.3654536540     0.2658237527    -1.9969687039
   41      H      -3.3324338947     3.8459997725     1.5244600037
   42      H      -4.6902705450    -0.8174764102     2.1968383406
   43      H      -6.5150525029    -2.4070257748     1.3027222591
   44      H      -7.0849644721    -0.7861752898     0.7870470276
   45      H      -6.2392443725    -2.9707925723    -1.0065013111
   46      H      -6.4936593886    -1.2779935070    -1.5252772182
   47      H      -3.8742540060    -2.4168511176    -1.5629106419
   48      H      -2.8694603162     4.4293811650    -0.1373401985
   49      H      -1.6698219492     3.5327680649     0.8739870263
   50      H       1.0827416236     2.0576844581    -2.5320697194
   51      H       2.2826056337     3.3966777438    -2.6938515988
   52      H       1.6846932608     2.9153962810    -1.0465362273
   53      H       0.1788355369    -1.7737017284     0.3181226428
   54      H       0.0921756330    -1.1563117231    -1.3786357747
   55      H      -0.1320784639     0.6147433270     1.1770332700
   56      H      -0.0751857942     1.2250383038    -0.5136878234
 ----------------------------------------------------------------

    9   -1510.2629219578      5.06E-09 Convergence criterion met
 Total energy in the final basis set = -1510.26292196
 Final energy is   -1510.26292195785
 **  OPTIMIZATION CONVERGED  **

                    Orbital Energies (a.u.)
 --------------------------------------------------------------

 Alpha MOs
 -- Occupied --
-18.942 -18.938 -18.931 -18.925 -18.888 -18.887 -18.875 -18.873
-18.872 -18.867 -10.106 -10.101 -10.101 -10.097 -10.075 -10.065
-10.061 -10.061 -10.060 -10.058 -10.057 -10.055 -10.041 -10.039
-10.038 -10.036 -10.023 -10.021 -10.020 -10.019  -1.018  -1.014
 -1.007  -1.002  -0.971  -0.970  -0.942  -0.937  -0.933  -0.929
 -0.765  -0.762  -0.730  -0.722  -0.709  -0.704  -0.698  -0.659
 -0.659  -0.615  -0.598  -0.588  -0.546  -0.543  -0.538  -0.537
 -0.515  -0.510  -0.491  -0.472  -0.463  -0.458  -0.455  -0.442
 -0.435  -0.430  -0.429  -0.411  -0.410  -0.408  -0.407  -0.400
 -0.389  -0.386  -0.376  -0.366  -0.365  -0.362  -0.352  -0.348
 -0.344  -0.340  -0.333  -0.332  -0.329  -0.325  -0.318  -0.314
 -0.309  -0.308  -0.306  -0.302  -0.298  -0.294  -0.292  -0.273
 -0.270  -0.248  -0.247  -0.244  -0.240  -0.235  -0.234  -0.187
 -0.179  -0.167  -0.164  -0.157  -0.155  -0.149  -0.148  -0.146
 -0.144

          Ground-State Mulliken Net Atomic Charges

     Atom                 Charge (a.u.)
  ----------------------------------------
      1 O                    -0.218480
      2 C                     0.215647
      3 C                    -0.079150
      4 C                    -0.073825
      5 C                     0.220064
      6 O                    -0.162652
      7 C                    -0.045776
      8 C                    -0.056810
      9 O                    -0.171266
     10 C                     0.210652
     11 C                    -0.078651
     12 C                    -0.079781
     13 C                     0.220217
     14 O                    -0.217788
     15 O                    -0.168440
     16 O                    -0.174075
     17 O                    -0.214407
     18 C                    -0.137138
     19 C                     0.025761
     20 C                    -0.143297
     21 C                    -0.144730
     22 C                     0.026003
     23 O                    -0.187307
     24 H                     0.086378
     25 H                     0.085200
     26 H                     0.085213
     27 H                     0.078408
     28 H                     0.074328
     29 H                     0.077978
     30 H                     0.073351
     31 H                     0.085862
     32 O                    -0.220353
     33 C                    -0.136288
     34 C                     0.025168
     35 C                    -0.140397
     36 C                    -0.146315
     37 C                     0.022498
     38 O                    -0.192427
     39 H                     0.083904
     40 H                     0.088104
     41 H                     0.101920
     42 H                     0.088973
     43 H                     0.078559
     44 H                     0.074558
     45 H                     0.079357
     46 H                     0.073761
     47 H                     0.085925
     48 H                     0.085061
     49 H                     0.084353
     50 H                     0.083366
     51 H                     0.083754
     52 H                     0.098288
     53 H                     0.092403
     54 H                     0.109149
     55 H                     0.097607
     56 H                     0.087585
  ----------------------------------------
  Sum of atomic charges =    -0.000000

                    Cartesian Multipole Moments
 -----------------------------------------------------------------
    Charge (ESU x 10^10)
                 0.0000
    Dipole Moment (Debye)
         X      -0.1932      Y       1.2319      Z      -1.8341
       Tot       2.2178
    Quadrupole Moments (Debye-Ang)
        XX    -134.6406     XY       0.8384     YY    -159.7292
        XZ       2.6118     YZ      -5.7229     ZZ    -167.0038

 Total job time:  76.51s(wall), 3638.04s(cpu)
        *  Thank you very much for using Q-Chem.  Have a nice day.  *
