 Q-Chem 5.0, Q-Chem, Inc., Pleasanton, CA (2017)
 Q-Chem 5.0.1 for Intel X86 EM64T Linux

User input:
--------------------------------------------------------------
$molecule
0  1
O -3.94934 -3.66094 2.70899
C -3.26408 -4.56952 2.26188
C -3.36658 -6.02376 2.66595
C -2.04988 -6.7841 2.89408
C -0.78171 -5.96006 2.86629
O -0.80818 -5.10344 1.80283
C 0.46184 -4.5001 1.53398
C 0.37963 -2.99045 1.73477
O 1.66609 -2.39518 1.50335
C 1.64459 -1.11068 1.06889
C 2.9602 -0.39811 1.27399
C 3.79875 -0.91368 2.45267
C 3.38902 -2.2594 3.01644
O 3.25335 -3.28753 2.36905
O -2.8708 -4.39131 0.96638
O 3.14394 -2.29377 4.35261
O 0.61328 -0.48449 0.85579
C 2.73623 -3.41896 5.03807
C 3.95336 -0.63556 0.1154
C 4.96817 0.50638 0.07241
C 5.77129 0.21682 1.32551
C 5.14843 -1.12068 1.74497
O 4.75471 -1.71327 0.53123
H 2.75224 0.69555 1.32149
H 3.84893 -0.18081 3.28849
H 3.45632 -0.74829 -0.87304
H 5.61597 0.32338 -0.81509
H 4.54553 1.532 0.00701
H 6.83852 0.09233 1.0371
H 5.67783 0.9729 2.13507
H 5.86004 -1.70927 2.36594
O 0.02909 -5.90934 3.7851
C -3.093 -3.25184 0.21666
C -4.01395 -6.20891 4.05896
C -4.62046 -7.60698 4.17077
C -3.36821 -8.45158 4.26419
C -2.2975 -7.356 4.30083
O -2.92835 -6.28121 4.95171
H -4.01695 -6.51657 1.90792
H -1.91107 -7.57307 2.12229
H -2.64966 -2.36461 0.71426
H -4.79019 -5.4492 4.29578
H -5.15153 -7.65475 5.14869
H -5.32519 -7.88815 3.35893
H -3.39156 -9.00926 5.22686
H -3.20623 -9.15641 3.42002
H -1.37159 -7.7461 4.7772
H -4.18425 -3.08972 0.08707
H -2.63029 -3.37781 -0.78352
H 2.61259 -3.16662 6.11107
H 3.49806 -4.22209 4.94404
H 1.76252 -3.77635 4.64081
H -0.38845 -2.62355 1.02265
H 0.06034 -2.76733 2.77571
H 0.73671 -4.71183 0.47879
H 1.29796 -4.89471 2.15277
$end

$opt
CONSTRAINT
tors           1           2           3           4    -136.792
tors           3           4           5           6     -45.146
tors           4           5           6           7    -167.201
tors           5           6           7           8    -116.402
tors           6           7           8           9    +178.257
tors           7           8           9          10    +152.035
tors           8           9          10          11    +161.053
tors           9          10          11          12     -28.094
tors          11          12          13          14     +53.369
ENDCONSTRAINT
$end

$rem
JOBTYPE                   OPT
METHOD                    B3LYP
DFT_D                     d3_op
BASIS                     STO-3G
GEOM_OPT_MAX_CYCLES       100
GEOM_OPT_TOL_GRADIENT     300
GEOM_OPT_TOL_DISPLACEMENT 1200
GEOM_OPT_TOL_ENERGY       100
SYMMETRY                  False
THRESH                    12
SCF_CONVERGENCE           8
MAX_SUB_FILE_NUM          128
MEM_STATIC                400
MEM_TOTAL                 4000
$end
--------------------------------------------------------------

   15   -1510.1025669629      8.03E-09 Convergence criterion met
 Total energy in the final basis set = -1510.10256696
   14   -1510.1722190236      5.26E-09 Convergence criterion met
 Total energy in the final basis set = -1510.17221902
   14   -1510.2210117133      9.10E-09 Convergence criterion met
 Total energy in the final basis set = -1510.22101171
   14   -1510.2428027175      8.89E-09 Convergence criterion met
 Total energy in the final basis set = -1510.24280272
   14   -1510.2519722192      8.69E-09 Convergence criterion met
 Total energy in the final basis set = -1510.25197222
   14   -1510.2580445643      3.58E-09 Convergence criterion met
 Total energy in the final basis set = -1510.25804456
   13   -1510.2608656843      8.53E-09 Convergence criterion met
 Total energy in the final basis set = -1510.26086568
   13   -1510.2620962611      2.95E-09 Convergence criterion met
   11   -1510.2627785465      5.04E-09 Convergence criterion met
 Total energy in the final basis set = -1510.26277855
   11   -1510.2627835893      4.20E-09 Convergence criterion met
 Total energy in the final basis set = -1510.26278359
   11   -1510.2627856195      3.25E-09 Convergence criterion met
 Total energy in the final basis set = -1510.26278562
    9   -1510.2627896177      7.93E-09 Convergence criterion met
 Total energy in the final basis set = -1510.26278962
    9   -1510.2627936798      8.39E-09 Convergence criterion met
 Total energy in the final basis set = -1510.26279368
    9   -1510.2627960248      5.69E-09 Convergence criterion met
 Total energy in the final basis set = -1510.26279602

             Standard Nuclear Orientation (Angstroms)
    I     Atom           X                Y                Z
 ----------------------------------------------------------------
    1      O      -3.7343118151     2.6241458410     1.2935085817
    2      C      -3.7843464155     2.0267958371     0.1956613953
    3      C      -4.6867043971     0.7915370487    -0.1539368234
    4      C      -4.0793310448    -0.4226020358    -0.9744208213
    5      C      -2.5251906610    -0.6790186354    -0.8605647629
    6      O      -1.7737474153     0.5317489532    -0.9739035806
    7      C      -0.3353068779     0.2254473807    -1.1711940459
    8      C       0.4788821433     0.7720433374     0.0480737147
    9      O       1.8926958620     0.3985460996    -0.1882848151
   10      C       2.7914628347     1.3160373580     0.4335078784
   11      C       4.2226663934     0.6924347929     0.6009997355
   12      C       4.3781712320    -0.8794879513     0.7493117570
   13      C       3.2780081289    -1.7728566274     0.0646218453
   14      O       2.8865494690    -1.7573292381    -1.1208417449
   15      O      -3.2484502419     2.5552770133    -1.0221331426
   16      O       2.7338967049    -2.6419680233     1.0704440625
   17      O       2.4620381811     2.4587547490     0.8255521847
   18      C       1.6502456145    -3.4674099907     0.4872966124
   19      C       5.2726290949     1.0049463071    -0.5655545132
   20      C       6.6828179424     1.1464092016     0.1262377155
   21      C       6.9274844914    -0.3423074972     0.5767218320
   22      C       5.7074163956    -1.0825380505    -0.1059372711
   23      O       5.4062683359    -0.2670992473    -1.3069021893
   24      H       4.6012352615     1.1594491226     1.5290034604
   25      H       4.4821758924    -1.1835556086     1.8053029077
   26      H       4.9869008024     1.8287579063    -1.2479723626
   27      H       7.4363881710     1.4722602426    -0.6090123784
   28      H       6.6759302295     1.8566430416     0.9683242559
   29      H       7.8836051168    -0.7337626805     0.1951254479
   30      H       6.9120524841    -0.4585145013     1.6724129200
   31      H       5.9019381221    -2.1337594683    -0.3943532689
   32      O      -1.9976718298    -1.8104323719    -0.7584254582
   33      C      -2.4442037349     3.7646974580    -0.7388378825
   34      C      -5.3053015082     0.0435727417     1.1042784636
   35      C      -6.7326872155    -0.4713562756     0.6792049318
   36      C      -6.3356151498    -1.5854227457    -0.3620857195
   37      C      -4.7645973500    -1.6254811918    -0.1975714559
   38      O      -4.5307943288    -1.2151261745     1.2104854152
   39      H      -5.5098602618     1.2172165021    -0.7598175330
   40      H      -4.3501247845    -0.3652451906    -2.0450707441
   41      H      -1.5384237707     3.5184946843    -0.1476942562
   42      H      -5.2511142383     0.6231770150     2.0466642559
   43      H      -7.2578994328    -0.9030414641     1.5465469740
   44      H      -7.3598847296     0.3227518054     0.2437754246
   45      H      -6.7766890312    -2.5608816588    -0.1036831895
   46      H      -6.6332840500    -1.3271109396    -1.3912922780
   47      H      -4.2828322642    -2.6021941757    -0.3979739459
   48      H      -3.0299634535     4.5265504337    -0.1849894636
   49      H      -2.1415182608     4.1678294909    -1.7226651111
   50      H       1.3018344441    -4.1331935799     1.2981182612
   51      H       2.0119207353    -4.0778077778    -0.3650240591
   52      H       0.8043602754    -2.8410025676     0.1350801623
   53      H       0.3793130111     1.8747768366     0.1444644229
   54      H       0.1209954883     0.2985982719     0.9890418831
   55      H      -0.0059092785     0.7242376367    -2.1060264563
   56      H      -0.2016147661    -0.8744250427    -1.2561059226
 ----------------------------------------------------------------

    9   -1510.2627968253      2.13E-09 Convergence criterion met
 Total energy in the final basis set = -1510.26279683
 Final energy is   -1510.26279682527
 **  OPTIMIZATION CONVERGED  **

                    Orbital Energies (a.u.)
 --------------------------------------------------------------

 Alpha MOs
 -- Occupied --
-18.938 -18.935 -18.932 -18.924 -18.889 -18.884 -18.878 -18.876
-18.873 -18.865 -10.103 -10.103 -10.099 -10.090 -10.073 -10.069
-10.062 -10.061 -10.059 -10.057 -10.057 -10.056 -10.042 -10.038
-10.037 -10.036 -10.021 -10.021 -10.020 -10.019  -1.019  -1.014
 -1.007  -1.000  -0.971  -0.969  -0.942  -0.938  -0.933  -0.924
 -0.763  -0.762  -0.728  -0.722  -0.711  -0.704  -0.698  -0.661
 -0.657  -0.614  -0.597  -0.584  -0.545  -0.544  -0.538  -0.537
 -0.516  -0.509  -0.489  -0.469  -0.462  -0.458  -0.455  -0.443
 -0.440  -0.430  -0.429  -0.411  -0.408  -0.405  -0.404  -0.402
 -0.395  -0.384  -0.372  -0.367  -0.363  -0.357  -0.351  -0.349
 -0.342  -0.335  -0.334  -0.331  -0.329  -0.329  -0.322  -0.314
 -0.310  -0.307  -0.307  -0.301  -0.298  -0.289  -0.285  -0.274
 -0.269  -0.253  -0.249  -0.245  -0.237  -0.234  -0.233  -0.183
 -0.175  -0.172  -0.166  -0.161  -0.155  -0.151  -0.147  -0.144
 -0.139

          Ground-State Mulliken Net Atomic Charges

     Atom                 Charge (a.u.)
  ----------------------------------------
      1 O                    -0.215065
      2 C                     0.211682
      3 C                    -0.080658
      4 C                    -0.074422
      5 C                     0.212100
      6 O                    -0.168366
      7 C                    -0.052555
      8 C                    -0.049430
      9 O                    -0.169603
     10 C                     0.208472
     11 C                    -0.080423
     12 C                    -0.078632
     13 C                     0.212916
     14 O                    -0.206084
     15 O                    -0.163976
     16 O                    -0.173831
     17 O                    -0.214730
     18 C                    -0.129791
     19 C                     0.026653
     20 C                    -0.141475
     21 C                    -0.145850
     22 C                     0.025654
     23 O                    -0.184165
     24 H                     0.085348
     25 H                     0.085933
     26 H                     0.084734
     27 H                     0.078204
     28 H                     0.074716
     29 H                     0.078267
     30 H                     0.073898
     31 H                     0.082408
     32 O                    -0.215660
     33 C                    -0.126859
     34 C                     0.021862
     35 C                    -0.141700
     36 C                    -0.146063
     37 C                     0.023066
     38 O                    -0.192431
     39 H                     0.084192
     40 H                     0.087280
     41 H                     0.086705
     42 H                     0.090376
     43 H                     0.078146
     44 H                     0.072934
     45 H                     0.078620
     46 H                     0.072935
     47 H                     0.090778
     48 H                     0.089753
     49 H                     0.089847
     50 H                     0.088916
     51 H                     0.087758
     52 H                     0.090613
     53 H                     0.095029
     54 H                     0.085736
     55 H                     0.090502
     56 H                     0.105733
  ----------------------------------------
  Sum of atomic charges =     0.000000

                    Cartesian Multipole Moments
 -----------------------------------------------------------------
    Charge (ESU x 10^10)
                 0.0000
    Dipole Moment (Debye)
         X      -0.4686      Y       0.2064      Z      -0.3624
       Tot       0.6273
    Quadrupole Moments (Debye-Ang)
        XX    -136.6116     XY       0.1986     YY    -159.2338
        XZ      14.6234     YZ      -5.1485     ZZ    -165.0918

 Total job time:  88.15s(wall), 4193.01s(cpu)
        *  Thank you very much for using Q-Chem.  Have a nice day.  *
