 Q-Chem 5.0, Q-Chem, Inc., Pleasanton, CA (2017)
 Q-Chem 5.0.1 for Intel X86 EM64T Linux

User input:
--------------------------------------------------------------
$molecule
0  1
O -3.7343118151 2.624145841 1.2935085817
C -3.7843464155 2.0267958371 0.1956613953
C -4.6867043971 0.7915370487 -0.1539368234
C -4.0793310448 -0.4226020358 -0.9744208213
C -2.525190661 -0.6790186354 -0.8605647629
O -1.7737474153 0.5317489532 -0.9739035806
C -0.3353068779 0.2254473807 -1.1711940459
C 0.4788821433 0.7720433374 0.0480737147
O 1.892695862 0.3985460996 -0.1882848151
C 2.7914628347 1.316037358 0.4335078784
C 4.2226663934 0.6924347929 0.6009997355
C 4.378171232 -0.8794879513 0.749311757
C 3.2780081289 -1.7728566274 0.0646218453
O 2.886549469 -1.7573292381 -1.1208417449
O -3.2484502419 2.5552770133 -1.0221331426
O 2.7338967049 -2.6419680233 1.0704440625
O 2.4620381811 2.458754749 0.8255521847
C 1.6502456145 -3.4674099907 0.4872966124
C 5.2726290949 1.0049463071 -0.5655545132
C 6.6828179424 1.1464092016 0.1262377155
C 6.9274844914 -0.3423074972 0.576721832
C 5.7074163956 -1.0825380505 -0.1059372711
O 5.4062683359 -0.2670992473 -1.3069021893
H 4.6012352615 1.1594491226 1.5290034604
H 4.4821758924 -1.1835556086 1.8053029077
H 4.9869008024 1.8287579063 -1.2479723626
H 7.436388171 1.4722602426 -0.6090123784
H 6.6759302295 1.8566430416 0.9683242559
H 7.8836051168 -0.7337626805 0.1951254479
H 6.9120524841 -0.4585145013 1.67241292
H 5.9019381221 -2.1337594683 -0.3943532689
O -1.9976718298 -1.8104323719 -0.7584254582
C -2.4442037349 3.764697458 -0.7388378825
C -5.3053015082 0.0435727417 1.1042784636
C -6.7326872155 -0.4713562756 0.6792049318
C -6.3356151498 -1.5854227457 -0.3620857195
C -4.76459735 -1.6254811918 -0.1975714559
O -4.5307943288 -1.2151261745 1.2104854152
H -5.5098602618 1.2172165021 -0.759817533
H -4.3501247845 -0.3652451906 -2.0450707441
H -1.5384237707 3.5184946843 -0.1476942562
H -5.2511142383 0.623177015 2.0466642559
H -7.2578994328 -0.9030414641 1.546546974
H -7.3598847296 0.3227518054 0.2437754246
H -6.7766890312 -2.5608816588 -0.1036831895
H -6.63328405 -1.3271109396 -1.391292278
H -4.2828322642 -2.6021941757 -0.3979739459
H -3.0299634535 4.5265504337 -0.1849894636
H -2.1415182608 4.1678294909 -1.7226651111
H 1.3018344441 -4.1331935799 1.2981182612
H 2.0119207353 -4.0778077778 -0.3650240591
H 0.8043602754 -2.8410025676 0.1350801623
H 0.3793130111 1.8747768366 0.1444644229
H 0.1209954883 0.2985982719 0.9890418831
H -0.0059092785 0.7242376367 -2.1060264563
H -0.2016147661 -0.8744250427 -1.2561059226
$end

$rem
JOBTYPE                   OPT
METHOD                    B3LYP
DFT_D                     d3_op
BASIS                     STO-3G
GEOM_OPT_MAX_CYCLES       100
GEOM_OPT_TOL_GRADIENT     300
GEOM_OPT_TOL_DISPLACEMENT 1200
GEOM_OPT_TOL_ENERGY       100
SYMMETRY                  False
THRESH                    12
SCF_CONVERGENCE           8
MAX_SUB_FILE_NUM          128
MEM_STATIC                400
MEM_TOTAL                 4000
$end
--------------------------------------------------------------

   16   -1510.2627880393      5.61E-09 Convergence criterion met
 Total energy in the final basis set = -1510.26278804
   13   -1510.2667850969      7.35E-09 Convergence criterion met
 Total energy in the final basis set = -1510.26678510
   13   -1510.2699503241      5.50E-09 Convergence criterion met
 Total energy in the final basis set = -1510.26995032
   13   -1510.2727899439      5.84E-09 Convergence criterion met
 Total energy in the final basis set = -1510.27278994
   13   -1510.2753448689      2.73E-09 Convergence criterion met
 Total energy in the final basis set = -1510.27534487
   13   -1510.2776187737      3.31E-09 Convergence criterion met
 Total energy in the final basis set = -1510.27761877
   13   -1510.2795117129      7.36E-09 Convergence criterion met
 Total energy in the final basis set = -1510.27951171
   13   -1510.2812605448      6.83E-09 Convergence criterion met
   12   -1510.2996680808      6.21E-09 Convergence criterion met
 Total energy in the final basis set = -1510.29966808
   11   -1510.2996835319      8.84E-09 Convergence criterion met
 Total energy in the final basis set = -1510.29968353
   12   -1510.2996945379      9.55E-09 Convergence criterion met
 Total energy in the final basis set = -1510.29969454
   12   -1510.2997123494      2.08E-09 Convergence criterion met
 Total energy in the final basis set = -1510.29971235
   10   -1510.2997181588      5.76E-09 Convergence criterion met
 Total energy in the final basis set = -1510.29971816
   10   -1510.2997223882      8.04E-09 Convergence criterion met
 Total energy in the final basis set = -1510.29972239

             Standard Nuclear Orientation (Angstroms)
    I     Atom           X                Y                Z
 ----------------------------------------------------------------
    1      O      -1.6037110505     0.3509450329     0.7606372172
    2      C      -2.6305064546     0.9861367440     0.4149802350
    3      C      -3.8959641645     0.3751552838    -0.2736425239
    4      C      -3.5677067045    -0.9156083828    -1.1414272014
    5      C      -2.0325087908    -1.2269905068    -1.2646671358
    6      O      -1.4813173776    -0.2951732023    -2.2030512575
    7      C       0.0046930046    -0.3261963749    -2.1706576702
    8      C       0.4480286901     0.8359783591    -1.2196521063
    9      O       1.8677948042     0.6491848669    -0.8470288153
   10      C       2.1567371276     1.4101102351     0.3288739985
   11      C       3.6335411809     1.0970275876     0.7371526345
   12      C       3.9231912807    -0.4610922431     0.8097184351
   13      C       2.6498654284    -1.3668211573     0.6162951367
   14      O       2.5112897704    -2.3250113587    -0.1731889871
   15      O      -2.8032534183     2.3831690769     0.6045763583
   16      O       1.6748667068    -0.9464494506     1.5735792861
   17      O       1.3495111183     2.1885264187     0.8866774818
   18      C       0.4986802017    -1.8501075489     1.5657157701
   19      C       4.6467435834     1.5197152226    -0.4144817521
   20      C       6.1207579923     1.4347910757     0.1522264995
   21      C       6.3686949494    -0.1203230363     0.1328821189
   22      C       4.9661207959    -0.6398934749    -0.3694237336
   23      O       4.5648265871     0.3860612614    -1.3609026566
   24      H       3.8479983759     1.6061011748     1.6926804061
   25      H       4.3746732787    -0.7209896010     1.7850668580
   26      H       4.3923883186     2.4699983526    -0.9230120988
   27      H       6.8206714081     1.9660666348    -0.5120176538
   28      H       6.1996267725     1.8633719905     1.1641686506
   29      H       7.1592147843    -0.3924411290    -0.5846924073
   30      H       6.6348425532    -0.5234232676     1.1229029849
   31      H       4.9541906043    -1.6474911544    -0.8290521518
   32      O      -1.3963347434    -2.1611981865    -0.7268378459
   33      C      -1.6489580634     2.9591742978     1.3482295161
   34      C      -4.8612266268    -0.2572981926     0.8239589491
   35      C      -6.2441295552    -0.6063359418     0.1441394462
   36      C      -5.8750452461    -1.9139232849    -0.6507825024
   37      C      -4.3358587106    -2.0378719644    -0.3261005819
   38      O      -4.2450204365    -1.5777553803     1.0797895932
   39      H      -4.4000315763     1.1600758600    -0.8643522188
   40      H      -3.9756480126    -0.8001454266    -2.1618345052
   41      H      -0.6600508782     2.6076824949     0.9729121746
   42      H      -4.9319413452     0.3283343273     1.7613236831
   43      H      -7.0095360722    -0.8017100262     0.9118406571
   44      H      -6.6006411360     0.2049613320    -0.5106124088
   45      H      -6.4214721364    -2.7887117862    -0.2637777751
   46      H      -6.0676649012    -1.8249550393    -1.7317750600
   47      H      -3.8989655793    -3.0500543432    -0.4283538887
   48      H      -1.7244550801     2.7066154302     2.4253864860
   49      H      -1.7331226494     4.0542956574     1.2254410253
   50      H      -0.1989848242    -1.4348039376     2.3153083881
   51      H       0.7898238995    -2.8785237036     1.8617815227
   52      H      -0.0182922443    -1.8946575539     0.5797719167
   53      H       0.2991287514     1.8201786716    -1.7139897446
   54      H      -0.1951368137     0.7882724144    -0.3085704675
   55      H       0.3624296903    -0.1782884055    -3.2088325956
   56      H       0.3656463600    -1.3021134535    -1.7802733359
 ----------------------------------------------------------------

    9   -1510.2997237442      4.07E-09 Convergence criterion met
 Total energy in the final basis set = -1510.29972374
 Final energy is   -1510.29972374422
 **  OPTIMIZATION CONVERGED  **

                    Orbital Energies (a.u.)
 --------------------------------------------------------------

 Alpha MOs
 -- Occupied --
-18.946 -18.930 -18.930 -18.917 -18.891 -18.884 -18.883 -18.881
-18.873 -18.860 -10.109 -10.104 -10.098 -10.087 -10.066 -10.065
-10.061 -10.057 -10.055 -10.053 -10.052 -10.044 -10.041 -10.033
-10.033 -10.029 -10.024 -10.022 -10.017 -10.016  -1.021  -1.012
 -1.008  -0.994  -0.974  -0.965  -0.944  -0.939  -0.932  -0.922
 -0.767  -0.758  -0.728  -0.721  -0.712  -0.702  -0.692  -0.662
 -0.642  -0.612  -0.595  -0.578  -0.548  -0.541  -0.539  -0.532
 -0.516  -0.506  -0.482  -0.473  -0.464  -0.458  -0.455  -0.440
 -0.434  -0.429  -0.424  -0.419  -0.410  -0.400  -0.397  -0.396
 -0.391  -0.376  -0.371  -0.364  -0.361  -0.356  -0.353  -0.346
 -0.342  -0.336  -0.333  -0.329  -0.328  -0.326  -0.318  -0.314
 -0.308  -0.307  -0.302  -0.300  -0.289  -0.287  -0.280  -0.274
 -0.267  -0.261  -0.250  -0.240  -0.238  -0.236  -0.229  -0.188
 -0.178  -0.168  -0.165  -0.160  -0.154  -0.152  -0.148  -0.140
 -0.138

          Ground-State Mulliken Net Atomic Charges

     Atom                 Charge (a.u.)
  ----------------------------------------
      1 O                    -0.215521
      2 C                     0.216311
      3 C                    -0.077930
      4 C                    -0.079187
      5 C                     0.219321
      6 O                    -0.177474
      7 C                    -0.053624
      8 C                    -0.064051
      9 O                    -0.168422
     10 C                     0.218849
     11 C                    -0.078086
     12 C                    -0.078155
     13 C                     0.213119
     14 O                    -0.216421
     15 O                    -0.165409
     16 O                    -0.177944
     17 O                    -0.218916
     18 C                    -0.138912
     19 C                     0.025646
     20 C                    -0.144258
     21 C                    -0.143564
     22 C                     0.024205
     23 O                    -0.186599
     24 H                     0.084801
     25 H                     0.082391
     26 H                     0.080695
     27 H                     0.077109
     28 H                     0.073113
     29 H                     0.077227
     30 H                     0.072799
     31 H                     0.090398
     32 O                    -0.209614
     33 C                    -0.140155
     34 C                     0.025651
     35 C                    -0.143874
     36 C                    -0.143556
     37 C                     0.025114
     38 O                    -0.187196
     39 H                     0.088880
     40 H                     0.086569
     41 H                     0.115392
     42 H                     0.083700
     43 H                     0.079147
     44 H                     0.074627
     45 H                     0.079148
     46 H                     0.074087
     47 H                     0.090585
     48 H                     0.085299
     49 H                     0.088613
     50 H                     0.089456
     51 H                     0.078787
     52 H                     0.108152
     53 H                     0.076909
     54 H                     0.107187
     55 H                     0.089430
     56 H                     0.106151
  ----------------------------------------
  Sum of atomic charges =     0.000000

                    Cartesian Multipole Moments
 -----------------------------------------------------------------
    Charge (ESU x 10^10)
                 0.0000
    Dipole Moment (Debye)
         X      -1.4468      Y       1.9407      Z       0.0332
       Tot       2.4209
    Quadrupole Moments (Debye-Ang)
        XX    -135.5517     XY       3.1235     YY    -162.2732
        XZ       9.6585     YZ       0.5658     ZZ    -159.4994

 Total job time:  155.90s(wall), 7440.34s(cpu)
        *  Thank you very much for using Q-Chem.  Have a nice day.  *
