 Q-Chem 5.0, Q-Chem, Inc., Pleasanton, CA (2017)
 Q-Chem 5.0.1 for Intel X86 EM64T Linux

User input:
--------------------------------------------------------------
$molecule
0  1
O -4.7811779146 2.7836997367 0.6225518576
C -4.0983644293 1.9289485456 0.0165058264
C -4.6733790966 0.6515769935 -0.7108022353
C -3.8665898079 -0.7012950026 -0.5201677049
C -2.3494263989 -0.5960962878 -0.1298031732
O -1.6580146155 -0.0973977095 -1.2786579839
C -0.1782969052 -0.1594205474 -1.1764958417
C 0.4472173786 0.3774691922 0.1612890196
O 1.905139499 0.1606901744 0.0134679755
C 2.6563875954 0.9981641186 0.8849252649
C 4.1857553374 0.6691098968 0.76974044
C 4.6259816273 -0.8024934604 0.3565612188
C 3.5024967571 -1.7478570693 -0.208225462
O 3.0316559472 -1.7919989383 -1.3642169444
O -2.6756714423 1.9974857429 -0.0946428485
O 3.0569685257 -2.5801618977 0.8739349222
O 2.1555236137 1.8832386691 1.6143882101
C 1.9243112836 -3.4237921465 0.431738631
C 4.9170472253 1.5352462485 -0.3556291715
C 6.435174782 1.665412619 0.0554997238
C 6.9411002331 0.2009750496 -0.2203817764
C 5.6413156742 -0.4681987247 -0.8205410987
O 4.9591195876 0.6394462923 -1.5297591968
H 4.6154362593 0.9164785181 1.7570716537
H 5.1128904989 -1.3123558029 1.2067696703
H 4.410084254 2.487354107 -0.606015915
H 6.9447416686 2.3963273785 -0.5926105141
H 6.5615223075 1.9737434448 1.105503864
H 7.7603679621 0.1862046624 -0.9565657829
H 7.2791842993 -0.311140117 0.6945731438
H 5.8215108862 -1.3118663982 -1.5143760965
O -1.8361695894 -0.979063454 0.9451943362
C -2.1759842268 3.1966488195 0.6195812121
C -6.0096623098 0.2733161296 0.0565618247
C -6.7712914932 -0.8881400319 -0.6963301957
C -5.9438523794 -2.1496957491 -0.2434294704
C -4.7690033836 -1.4557702986 0.5472509454
O -5.4670128123 -0.3729638379 1.2775418696
H -4.8285788362 0.8806169251 -1.7814380491
H -3.8885445815 -1.2492019453 -1.4803683669
H -2.3761863958 3.1328685954 1.7084688058
H -6.6209832821 1.1558695356 0.3284453463
H -7.819274565 -0.9467631369 -0.3628380519
H -6.7574676924 -0.7444403368 -1.7887505034
H -6.5310655858 -2.7906347959 0.4338395507
H -5.5889734253 -2.7583991654 -1.0902766671
H -4.2026467874 -2.0990297685 1.2487092456
H -2.6378960857 4.1254617656 0.2282062245
H -1.0847014834 3.223368602 0.4458606407
H 1.6898951432 -4.0940692181 1.2790700457
H 2.1834020333 -4.028194251 -0.4614450268
H 1.0320395694 -2.8086860018 0.1934291368
H 0.2202805004 1.4522879409 0.3153012963
H 0.0318278112 -0.2034110054 1.0125689833
H 0.1956187222 0.4365014831 -2.0334035586
H 0.1616526846 -1.2107177106 -1.3157174952
$end

$rem
JOBTYPE                   OPT
METHOD                    B3LYP
DFT_D                     d3_op
BASIS                     STO-3G
GEOM_OPT_MAX_CYCLES       100
GEOM_OPT_TOL_GRADIENT     300
GEOM_OPT_TOL_DISPLACEMENT 1200
GEOM_OPT_TOL_ENERGY       100
SYMMETRY                  False
THRESH                    12
SCF_CONVERGENCE           8
MAX_SUB_FILE_NUM          128
MEM_STATIC                400
MEM_TOTAL                 4000
$end
--------------------------------------------------------------

   16   -1510.2727477544      4.77E-09 Convergence criterion met
 Total energy in the final basis set = -1510.27274775
   15   -1510.2761248219      3.23E-09 Convergence criterion met
 Total energy in the final basis set = -1510.27612482
   14   -1510.2791480538      7.10E-09 Convergence criterion met
 Total energy in the final basis set = -1510.27914805
   14   -1510.2811103298      7.74E-09 Convergence criterion met
 Total energy in the final basis set = -1510.28111033
   14   -1510.2835145010      4.60E-09 Convergence criterion met
 Total energy in the final basis set = -1510.28351450
   14   -1510.2832000678      5.93E-09 Convergence criterion met
 Total energy in the final basis set = -1510.28320007
   13   -1510.2848954621      9.55E-09 Convergence criterion met
 Total energy in the final basis set = -1510.28489546
   13   -1510.2872758795      9.06E-09 Convergence criterion met
   12   -1510.2988813934      4.93E-09 Convergence criterion met
 Total energy in the final basis set = -1510.29888139
   11   -1510.2989448393      7.62E-09 Convergence criterion met
 Total energy in the final basis set = -1510.29894484
    9   -1510.2989375715      5.70E-09 Convergence criterion met
 Total energy in the final basis set = -1510.29893757
    9   -1510.2989388738      6.80E-09 Convergence criterion met
 Total energy in the final basis set = -1510.29893887
    9   -1510.2989374811      6.38E-09 Convergence criterion met
 Total energy in the final basis set = -1510.29893748
    9   -1510.2989360579      4.12E-09 Convergence criterion met
 Total energy in the final basis set = -1510.29893606

             Standard Nuclear Orientation (Angstroms)
    I     Atom           X                Y                Z
 ----------------------------------------------------------------
    1      O      -3.1632277728     0.5417549120     2.3290442941
    2      C      -3.0340060352     0.7036942860     1.0968362932
    3      C      -4.0762073035     0.2788181707    -0.0062581108
    4      C      -3.5477344128    -0.7436578691    -1.1011534835
    5      C      -2.0396032582    -1.0910459685    -0.9109055655
    6      O      -1.3590818897    -0.8568203553    -2.1472307429
    7      C       0.1097084185    -0.8682708588    -1.9359935872
    8      C       0.5354572375     0.5492791003    -1.4151822698
    9      O       1.9311117937     0.4295106597    -0.9333198890
   10      C       2.2995608002     1.5208919863    -0.0907004089
   11      C       3.7910988020     1.3075554602     0.3264766764
   12      C       4.0857497074    -0.1589668528     0.8539402201
   13      C       2.8092813179    -1.0697436479     0.9801289076
   14      O       2.6296301446    -2.1970727235     0.4721231901
   15      O      -1.9256701298     1.3883867260     0.4939734913
   16      O       1.8904510210    -0.4139246077     1.8579658787
   17      O       1.5509209811     2.4779397169     0.2135012296
   18      C       0.7133651652    -1.2784357166     2.1199714791
   19      C       4.7458752341     1.3471847381    -0.9474619892
   20      C       6.2447998288     1.4282592204    -0.4500279514
   21      C       6.4991208335    -0.0578643848     0.0048056657
   22      C       5.0805182746    -0.6961870702    -0.2555798001
   23      O       4.6270854242    -0.0209155581    -1.4946779604
   24      H       4.0541542250     2.0795138147     1.0702772735
   25      H       4.5735804591    -0.1177093339     1.8451190304
   26      H       4.4620829663     2.0981810269    -1.7103777435
   27      H       6.9096262697     1.7179023935    -1.2793292993
   28      H       6.3693763648     2.1527017964     0.3706177232
   29      H       7.2623572310    -0.5455365195    -0.6222124501
   30      H       6.8049323572    -0.1359418138     1.0603268006
   31      H       5.0543012157    -1.7958671481    -0.3840681461
   32      O      -1.4954900490    -1.5014195963     0.1395069772
   33      C      -1.0512376968     1.9521769898     1.5562388195
   34      C      -5.2411745828    -0.5669213697     0.6549361835
   35      C      -6.4596691686    -0.6295510539    -0.3458003597
   36      C      -5.9263925648    -1.6592998727    -1.4106199573
   37      C      -4.4984082183    -1.9912852150    -0.8228398455
   38      O      -4.7041299387    -1.9481535621     0.6402438086
   39      H      -4.4534300617     1.1984205272    -0.4907673492
   40      H      -3.6840968597    -0.3480937974    -2.1225417327
   41      H      -0.8181173963     1.1908207065     2.3249182699
   42      H      -5.4783425160    -0.2598926562     1.6919962602
   43      H      -7.3590430262    -1.0081908050     0.1651876754
   44      H      -6.6904015398     0.3549507558    -0.7831251570
   45      H      -6.5477729327    -2.5683409005    -1.4397899521
   46      H      -5.8710218531    -1.2353845965    -2.4259669502
   47      H      -4.0757696748    -2.9681708352    -1.1284948865
   48      H      -1.5438468450     2.8134188812     2.0504566580
   49      H      -0.1149671599     2.2795247234     1.0512269522
   50      H       0.2122286152    -0.8468291430     3.0057293395
   51      H       1.0249026759    -2.3177610255     2.3435668208
   52      H      -0.0019483912    -1.2959413281     1.2643990333
   53      H       0.4724435207     1.3009420849    -2.2314549001
   54      H      -0.1651330627     0.8572821139    -0.6072543591
   55      H       0.5722449596    -1.0961126840    -2.9159669744
   56      H       0.4051319160    -1.6399077727    -1.1925405703
 ----------------------------------------------------------------

    8   -1510.2989359146      7.94E-09 Convergence criterion met
 Total energy in the final basis set = -1510.29893591
 Final energy is   -1510.29893591458
 **  OPTIMIZATION CONVERGED  **

                    Orbital Energies (a.u.)
 --------------------------------------------------------------

 Alpha MOs
 -- Occupied --
-18.943 -18.942 -18.929 -18.923 -18.889 -18.888 -18.887 -18.884
-18.875 -18.866 -10.111 -10.109 -10.097 -10.094 -10.075 -10.070
-10.063 -10.063 -10.058 -10.057 -10.042 -10.042 -10.040 -10.039
-10.039 -10.035 -10.022 -10.021 -10.021 -10.020  -1.023  -1.018
 -1.007  -1.001  -0.972  -0.970  -0.948  -0.943  -0.932  -0.928
 -0.766  -0.764  -0.730  -0.724  -0.712  -0.706  -0.697  -0.653
 -0.649  -0.618  -0.599  -0.582  -0.547  -0.546  -0.538  -0.537
 -0.518  -0.509  -0.486  -0.477  -0.462  -0.461  -0.454  -0.447
 -0.436  -0.432  -0.430  -0.414  -0.409  -0.407  -0.401  -0.399
 -0.393  -0.379  -0.373  -0.368  -0.360  -0.359  -0.356  -0.352
 -0.342  -0.336  -0.334  -0.332  -0.330  -0.328  -0.325  -0.312
 -0.310  -0.306  -0.305  -0.299  -0.295  -0.289  -0.284  -0.279
 -0.271  -0.258  -0.256  -0.246  -0.243  -0.235  -0.235  -0.187
 -0.181  -0.174  -0.171  -0.161  -0.160  -0.151  -0.146  -0.146
 -0.144

          Ground-State Mulliken Net Atomic Charges

     Atom                 Charge (a.u.)
  ----------------------------------------
      1 O                    -0.208117
      2 C                     0.210989
      3 C                    -0.078586
      4 C                    -0.079735
      5 C                     0.217729
      6 O                    -0.168584
      7 C                    -0.050410
      8 C                    -0.054892
      9 O                    -0.166744
     10 C                     0.220855
     11 C                    -0.078107
     12 C                    -0.078382
     13 C                     0.213390
     14 O                    -0.217160
     15 O                    -0.180419
     16 O                    -0.179943
     17 O                    -0.216007
     18 C                    -0.145932
     19 C                     0.025931
     20 C                    -0.144021
     21 C                    -0.143658
     22 C                     0.024435
     23 O                    -0.186726
     24 H                     0.086459
     25 H                     0.083943
     26 H                     0.081505
     27 H                     0.078024
     28 H                     0.073954
     29 H                     0.078155
     30 H                     0.073570
     31 H                     0.091005
     32 O                    -0.212386
     33 C                    -0.146524
     34 C                     0.024872
     35 C                    -0.144459
     36 C                    -0.143501
     37 C                     0.026354
     38 O                    -0.185811
     39 H                     0.084857
     40 H                     0.087671
     41 H                     0.088715
     42 H                     0.091936
     43 H                     0.078935
     44 H                     0.073433
     45 H                     0.078877
     46 H                     0.073961
     47 H                     0.084004
     48 H                     0.079925
     49 H                     0.111030
     50 H                     0.083558
     51 H                     0.085359
     52 H                     0.108243
     53 H                     0.085029
     54 H                     0.103650
     55 H                     0.094972
     56 H                     0.104781
  ----------------------------------------
  Sum of atomic charges =     0.000000

                    Cartesian Multipole Moments
 -----------------------------------------------------------------
    Charge (ESU x 10^10)
                 0.0000
    Dipole Moment (Debye)
         X       0.2657      Y       1.6428      Z      -1.5986
       Tot       2.3076
    Quadrupole Moments (Debye-Ang)
        XX    -137.9638     XY       2.2444     YY    -164.4393
        XZ      13.2897     YZ       1.1081     ZZ    -161.8234

 Total job time:  112.05s(wall), 5341.35s(cpu)
        *  Thank you very much for using Q-Chem.  Have a nice day.  *
