 Q-Chem 5.0, Q-Chem, Inc., Pleasanton, CA (2017)
 Q-Chem 5.0.1 for Intel X86 EM64T Linux

User input:
--------------------------------------------------------------
$molecule
0  1
O -3.94934 -3.66094 2.70899
C -3.26408 -4.56952 2.26188
C -3.36658 -6.02376 2.66595
C -2.04986 -6.79228 2.86466
C -0.77767 -5.97575 2.81083
O -0.5477 -5.55885 1.5307
C 0.75051 -4.98312 1.3506
C 1.03797 -3.97721 2.4604
O 2.35713 -3.43289 2.29792
C 2.57729 -2.24431 2.9127
C 4.00553 -1.77087 2.78378
C 5.04714 -2.88922 2.63346
C 4.5009 -4.25768 2.27898
O 4.18604 -4.62623 1.15666
O -2.6177 -4.31967 1.09403
O 4.55478 -5.17929 3.27765
O 1.78753 -1.72714 3.69345
C 4.17564 -6.4989 3.15223
C 4.2802 -0.97187 1.49264
C 5.48782 -0.05929 1.71406
C 6.60707 -1.08115 1.77118
C 5.83051 -2.35658 1.42084
O 4.79441 -1.9096 0.57969
H 4.20555 -1.09221 3.64464
H 5.66124 -2.99432 3.55561
H 3.40463 -0.37907 1.14859
H 5.60689 0.54784 0.7882
H 5.42791 0.62381 2.58897
H 7.34959 -0.8322 0.98109
H 7.11301 -1.17869 2.75637
H 6.51004 -3.1259 0.99174
O 0.10447 -6.2212 3.62682
C -2.49915 -3.07493 0.50977
C -4.02988 -6.21556 4.04353
C -4.62174 -7.61998 4.14647
C -3.3617 -8.44605 4.2741
C -2.30222 -7.33912 4.29197
O -2.9461 -6.26788 4.93674
H -3.98769 -6.50433 1.87689
H -1.92845 -7.62725 2.13817
H -1.96719 -2.38158 1.19581
H -4.81524 -5.46189 4.26921
H -5.18228 -7.67923 5.10694
H -5.29465 -7.90413 3.30894
H -3.38322 -8.96657 5.25774
H -3.18983 -9.18346 3.46046
H -1.38511 -7.72578 4.78661
H -3.50283 -2.66644 0.26566
H -1.91262 -3.1681 -0.42708
H 4.33993 -7.01655 4.11936
H 4.78268 -7.00099 2.36918
H 3.09889 -6.56618 2.89787
H 0.27615 -3.17769 2.30901
H 0.9762 -4.25217 3.52479
H 0.81236 -4.50491 0.35008
H 1.51123 -5.7905 1.39049
$end

$opt
CONSTRAINT
tors           1           2           3           4    -138.072
tors           3           4           5           6     -70.503
tors           4           5           6           7    -169.659
tors           5           6           7           8     -47.368
tors           6           7           8           9    +178.257
tors           7           8           9          10    +158.918
tors           8           9          10          11    +176.104
tors           9          10          11          12     -28.094
tors          11          12          13          14     +80.733
ENDCONSTRAINT
$end

$rem
JOBTYPE                   OPT
METHOD                    B3LYP
DFT_D                     d3_op
BASIS                     STO-3G
GEOM_OPT_MAX_CYCLES       100
GEOM_OPT_TOL_GRADIENT     300
GEOM_OPT_TOL_DISPLACEMENT 1200
GEOM_OPT_TOL_ENERGY       100
SYMMETRY                  False
THRESH                    12
SCF_CONVERGENCE           8
MAX_SUB_FILE_NUM          128
MEM_STATIC                400
MEM_TOTAL                 4000
$end
--------------------------------------------------------------

   16   -1510.1207556500      3.17E-09 Convergence criterion met
 Total energy in the final basis set = -1510.12075565
   14   -1510.1937233176      9.91E-09 Convergence criterion met
 Total energy in the final basis set = -1510.19372332
   15   -1510.2325478298      1.37E-09 Convergence criterion met
 Total energy in the final basis set = -1510.23254783
   14   -1510.2531913149      9.25E-09 Convergence criterion met
 Total energy in the final basis set = -1510.25319131
   14   -1510.2625143028      7.55E-09 Convergence criterion met
 Total energy in the final basis set = -1510.26251430
   14   -1510.2667824795      4.73E-09 Convergence criterion met
 Total energy in the final basis set = -1510.26678248
   13   -1510.2691533622      8.83E-09 Convergence criterion met
 Total energy in the final basis set = -1510.26915336
   13   -1510.2700986831      3.53E-09 Convergence criterion met
   12   -1510.2729525826      4.10E-09 Convergence criterion met
 Total energy in the final basis set = -1510.27295258
   11   -1510.2730002183      5.99E-09 Convergence criterion met
 Total energy in the final basis set = -1510.27300022
   11   -1510.2730381963      7.20E-09 Convergence criterion met
 Total energy in the final basis set = -1510.27303820
   11   -1510.2730535101      4.05E-09 Convergence criterion met
 Total energy in the final basis set = -1510.27305351
    9   -1510.2730590129      6.51E-09 Convergence criterion met
 Total energy in the final basis set = -1510.27305901
   10   -1510.2730603053      3.09E-09 Convergence criterion met
 Total energy in the final basis set = -1510.27306031

             Standard Nuclear Orientation (Angstroms)
    I     Atom           X                Y                Z
 ----------------------------------------------------------------
    1      O      -4.7811779146     2.7836997367     0.6225518576
    2      C      -4.0983644293     1.9289485456     0.0165058264
    3      C      -4.6733790966     0.6515769935    -0.7108022353
    4      C      -3.8665898079    -0.7012950026    -0.5201677049
    5      C      -2.3494263989    -0.5960962878    -0.1298031732
    6      O      -1.6580146155    -0.0973977095    -1.2786579839
    7      C      -0.1782969052    -0.1594205474    -1.1764958417
    8      C       0.4472173786     0.3774691922     0.1612890196
    9      O       1.9051394990     0.1606901744     0.0134679755
   10      C       2.6563875954     0.9981641186     0.8849252649
   11      C       4.1857553374     0.6691098968     0.7697404400
   12      C       4.6259816273    -0.8024934604     0.3565612188
   13      C       3.5024967571    -1.7478570693    -0.2082254620
   14      O       3.0316559472    -1.7919989383    -1.3642169444
   15      O      -2.6756714423     1.9974857429    -0.0946428485
   16      O       3.0569685257    -2.5801618977     0.8739349222
   17      O       2.1555236137     1.8832386691     1.6143882101
   18      C       1.9243112836    -3.4237921465     0.4317386310
   19      C       4.9170472253     1.5352462485    -0.3556291715
   20      C       6.4351747820     1.6654126190     0.0554997238
   21      C       6.9411002331     0.2009750496    -0.2203817764
   22      C       5.6413156742    -0.4681987247    -0.8205410987
   23      O       4.9591195876     0.6394462923    -1.5297591968
   24      H       4.6154362593     0.9164785181     1.7570716537
   25      H       5.1128904989    -1.3123558029     1.2067696703
   26      H       4.4100842540     2.4873541070    -0.6060159150
   27      H       6.9447416686     2.3963273785    -0.5926105141
   28      H       6.5615223075     1.9737434448     1.1055038640
   29      H       7.7603679621     0.1862046624    -0.9565657829
   30      H       7.2791842993    -0.3111401170     0.6945731438
   31      H       5.8215108862    -1.3118663982    -1.5143760965
   32      O      -1.8361695894    -0.9790634540     0.9451943362
   33      C      -2.1759842268     3.1966488195     0.6195812121
   34      C      -6.0096623098     0.2733161296     0.0565618247
   35      C      -6.7712914932    -0.8881400319    -0.6963301957
   36      C      -5.9438523794    -2.1496957491    -0.2434294704
   37      C      -4.7690033836    -1.4557702986     0.5472509454
   38      O      -5.4670128123    -0.3729638379     1.2775418696
   39      H      -4.8285788362     0.8806169251    -1.7814380491
   40      H      -3.8885445815    -1.2492019453    -1.4803683669
   41      H      -2.3761863958     3.1328685954     1.7084688058
   42      H      -6.6209832821     1.1558695356     0.3284453463
   43      H      -7.8192745650    -0.9467631369    -0.3628380519
   44      H      -6.7574676924    -0.7444403368    -1.7887505034
   45      H      -6.5310655858    -2.7906347959     0.4338395507
   46      H      -5.5889734253    -2.7583991654    -1.0902766671
   47      H      -4.2026467874    -2.0990297685     1.2487092456
   48      H      -2.6378960857     4.1254617656     0.2282062245
   49      H      -1.0847014834     3.2233686020     0.4458606407
   50      H       1.6898951432    -4.0940692181     1.2790700457
   51      H       2.1834020333    -4.0281942510    -0.4614450268
   52      H       1.0320395694    -2.8086860018     0.1934291368
   53      H       0.2202805004     1.4522879409     0.3153012963
   54      H       0.0318278112    -0.2034110054     1.0125689833
   55      H       0.1956187222     0.4365014831    -2.0334035586
   56      H       0.1616526846    -1.2107177106    -1.3157174952
 ----------------------------------------------------------------

    9   -1510.2730612153      6.53E-09 Convergence criterion met
 Total energy in the final basis set = -1510.27306122
 Final energy is   -1510.27306121535
 **  OPTIMIZATION CONVERGED  **

                    Orbital Energies (a.u.)
 --------------------------------------------------------------

 Alpha MOs
 -- Occupied --
-18.940 -18.937 -18.937 -18.927 -18.889 -18.885 -18.879 -18.875
-18.873 -18.866 -10.107 -10.102 -10.100 -10.094 -10.073 -10.065
-10.065 -10.061 -10.060 -10.059 -10.058 -10.057 -10.041 -10.038
-10.037 -10.036 -10.021 -10.020 -10.020 -10.019  -1.018  -1.015
 -1.009  -1.002  -0.971  -0.969  -0.943  -0.938  -0.937  -0.928
 -0.764  -0.762  -0.728  -0.722  -0.711  -0.704  -0.695  -0.664
 -0.660  -0.617  -0.598  -0.586  -0.545  -0.543  -0.538  -0.537
 -0.516  -0.510  -0.485  -0.476  -0.463  -0.458  -0.452  -0.443
 -0.440  -0.430  -0.426  -0.415  -0.410  -0.409  -0.406  -0.398
 -0.386  -0.384  -0.379  -0.372  -0.365  -0.358  -0.352  -0.348
 -0.343  -0.338  -0.334  -0.332  -0.330  -0.329  -0.326  -0.311
 -0.309  -0.307  -0.306  -0.301  -0.296  -0.292  -0.289  -0.272
 -0.272  -0.251  -0.251  -0.249  -0.239  -0.235  -0.233  -0.185
 -0.180  -0.175  -0.170  -0.157  -0.154  -0.149  -0.146  -0.143
 -0.143

          Ground-State Mulliken Net Atomic Charges

     Atom                 Charge (a.u.)
  ----------------------------------------
      1 O                    -0.212093
      2 C                     0.210914
      3 C                    -0.075754
      4 C                    -0.080818
      5 C                     0.218794
      6 O                    -0.166505
      7 C                    -0.046674
      8 C                    -0.058095
      9 O                    -0.171439
     10 C                     0.208899
     11 C                    -0.079513
     12 C                    -0.079337
     13 C                     0.216252
     14 O                    -0.212490
     15 O                    -0.168252
     16 O                    -0.173196
     17 O                    -0.216710
     18 C                    -0.128509
     19 C                     0.025916
     20 C                    -0.142686
     21 C                    -0.145211
     22 C                     0.026182
     23 O                    -0.185616
     24 H                     0.085734
     25 H                     0.084987
     26 H                     0.083229
     27 H                     0.078185
     28 H                     0.074561
     29 H                     0.077970
     30 H                     0.073661
     31 H                     0.084633
     32 O                    -0.216400
     33 C                    -0.127716
     34 C                     0.023552
     35 C                    -0.145798
     36 C                    -0.142186
     37 C                     0.022605
     38 O                    -0.190910
     39 H                     0.086314
     40 H                     0.083949
     41 H                     0.093190
     42 H                     0.091298
     43 H                     0.078648
     44 H                     0.073006
     45 H                     0.078154
     46 H                     0.072633
     47 H                     0.088649
     48 H                     0.091555
     49 H                     0.090363
     50 H                     0.089583
     51 H                     0.087902
     52 H                     0.084809
     53 H                     0.089494
     54 H                     0.107175
     55 H                     0.095494
     56 H                     0.087616
  ----------------------------------------
  Sum of atomic charges =    -0.000000

                    Cartesian Multipole Moments
 -----------------------------------------------------------------
    Charge (ESU x 10^10)
                 0.0000
    Dipole Moment (Debye)
         X       0.9499      Y      -1.1930      Z      -1.1369
       Tot       1.9021
    Quadrupole Moments (Debye-Ang)
        XX    -146.2688     XY       6.6107     YY    -154.2480
        XZ      15.9426     YZ      -1.9621     ZZ    -168.4445

 Total job time:  70.40s(wall), 3348.37s(cpu)
        *  Thank you very much for using Q-Chem.  Have a nice day.  *
