 Q-Chem 5.0, Q-Chem, Inc., Pleasanton, CA (2017)
 Q-Chem 5.0.1 for Intel X86 EM64T Linux

User input:
--------------------------------------------------------------
$molecule
0  1
O -3.28522016 2.2543622839 0.7812734738
C -3.6374865133 1.7011470549 -0.2826396781
C -4.6309800559 0.5000839254 -0.4563557475
C -3.9405914179 -0.9280854975 -0.3294006948
C -2.4284818557 -0.8760828577 0.1083690557
O -1.7379376929 -0.1283505413 -0.8936463874
C -0.2541577073 -0.1424265638 -0.8258597835
C 0.4064455521 -0.1094391687 0.5991862798
O 1.8633874191 -0.2177450207 0.3387286757
C 2.6153108804 0.0330969409 1.5241348402
C 4.1508499336 -0.1798836277 1.2656647607
C 4.6049833319 -0.6965552335 -0.1644914236
C 3.4930946577 -1.2573690366 -1.1232408307
O 3.0253642909 -0.7347442969 -2.1566201977
O -3.2346900096 2.1380274456 -1.5869025932
O 3.1792501452 -2.585244521 -0.6717766978
O 2.1063508643 0.3889176635 2.6092210588
C 2.1870426212 -3.2128762549 -1.5698489998
C 4.8485506928 1.2514948063 1.2773814027
C 6.4177427954 1.0771186587 1.3537159115
C 6.7581280727 0.6832954742 -0.1319658026
C 5.3109219164 0.5999230399 -0.7521307523
O 4.6040607195 1.7284927319 -0.1028395007
H 4.5387289489 -0.8302680453 2.0703101601
H 5.3408648399 -1.5095944487 -0.0283459131
H 4.4165050972 1.9533138881 2.0174271196
H 6.8976150909 2.0252750315 1.643098277
H 6.7095127075 0.2988607763 2.0771558311
H 7.3450509008 1.4706306675 -0.6315602667
H 7.3058266341 -0.2695396358 -0.2080508283
H 5.2464328349 0.6878903187 -1.8541358754
O -1.9287775654 -1.4575158033 1.0959605243
C -2.2550387927 3.2415063798 -1.4662601932
C -5.7031560429 0.4152105273 0.7104562769
C -6.8999997403 -0.4837228925 0.2057480989
C -6.2443534871 -1.9143316846 0.2563758677
C -4.810360675 -1.5753518722 0.8236725261
O -5.0483259539 -0.430468195 1.7341330637
H -5.1121722563 0.6038527656 -1.4448592533
H -4.005878707 -1.4869273109 -1.2809952817
H -1.3422303071 2.9168310268 -0.9266221196
H -5.989012551 1.3935131292 1.1426699493
H -7.7542098861 -0.4082232541 0.8971998716
H -7.2362375058 -0.2034078814 -0.8053677485
H -6.7842579423 -2.5831680843 0.9451032592
H -6.1939955895 -2.3935858307 -0.7344970689
H -4.2973130142 -2.395024671 1.3634717382
H -2.6847149769 4.1150956862 -0.9345010502
H -1.9894942016 3.5299847499 -2.4998638475
H 2.1119930974 -4.2706636709 -1.2568525017
H 2.5007979703 -3.1581837857 -2.6322256442
H 1.1906529823 -2.7344988204 -1.4754349221
H 0.1664595716 0.8355154856 1.1318375982
H 0.0264248637 -0.95869232 1.2052356365
H 0.0712277149 0.7414254651 -1.4118750122
H 0.1137681207 -1.0498570447 -1.3543619848
$end

$rem
JOBTYPE                   OPT
METHOD                    B3LYP
DFT_D                     d3_op
BASIS                     STO-3G
GEOM_OPT_MAX_CYCLES       100
GEOM_OPT_TOL_GRADIENT     300
GEOM_OPT_TOL_DISPLACEMENT 1200
GEOM_OPT_TOL_ENERGY       100
SYMMETRY                  False
THRESH                    12
SCF_CONVERGENCE           8
MAX_SUB_FILE_NUM          128
MEM_STATIC                400
MEM_TOTAL                 4000
$end
--------------------------------------------------------------

   16   -1510.2755785765      5.02E-09 Convergence criterion met
 Total energy in the final basis set = -1510.27557858
   14   -1510.2783237075      7.41E-09 Convergence criterion met
 Total energy in the final basis set = -1510.27832371
   14   -1510.2809996097      3.79E-09 Convergence criterion met
 Total energy in the final basis set = -1510.28099961
   15   -1510.2837374090      3.82E-09 Convergence criterion met
 Total energy in the final basis set = -1510.28373741
   15   -1510.2857038809      3.03E-09 Convergence criterion met
 Total energy in the final basis set = -1510.28570388
   14   -1510.2872859019      7.96E-09 Convergence criterion met
 Total energy in the final basis set = -1510.28728590
   14   -1510.2887661965      5.53E-09 Convergence criterion met
 Total energy in the final basis set = -1510.28876620
   14   -1510.2896400300      9.26E-09 Convergence criterion met
   12   -1510.2997855914      4.19E-09 Convergence criterion met
 Total energy in the final basis set = -1510.29978559
   11   -1510.2997922746      7.92E-09 Convergence criterion met
 Total energy in the final basis set = -1510.29979227
   10   -1510.2997947306      5.96E-09 Convergence criterion met
 Total energy in the final basis set = -1510.29979473
   10   -1510.2997986882      6.75E-09 Convergence criterion met
 Total energy in the final basis set = -1510.29979869
   10   -1510.2998027507      6.30E-09 Convergence criterion met
 Total energy in the final basis set = -1510.29980275
   10   -1510.2998044434      5.53E-09 Convergence criterion met
 Total energy in the final basis set = -1510.29980444

             Standard Nuclear Orientation (Angstroms)
    I     Atom           X                Y                Z
 ----------------------------------------------------------------
    1      O      -1.5643214909     0.2006596413     0.7107398528
    2      C      -2.5960623947     0.8792660520     0.4814156917
    3      C      -3.8725778892     0.3751406780    -0.2709812850
    4      C      -3.5594741985    -0.7987366459    -1.2947053022
    5      C      -2.0262887592    -1.0825406863    -1.4877625064
    6      O      -1.4939549834    -0.0266389882    -2.2973175182
    7      C      -0.0079292526    -0.0607893814    -2.3004754416
    8      C       0.4585210757     0.9629655409    -1.2114534000
    9      O       1.8838114672     0.7251969111    -0.8937589385
   10      C       2.1961254151     1.3184205796     0.3699866041
   11      C       3.6818350681     0.9622387960     0.7020894035
   12      C       3.9734941855    -0.5928416115     0.5902937500
   13      C       2.7015158851    -1.4729464324     0.2956751776
   14      O       2.5632247229    -2.3241963457    -0.6082515134
   15      O      -2.7650596156     2.2295147005     0.8876499857
   16      O       1.7293897399    -1.1813254237     1.3022042632
   17      O       1.4000870631     2.0106362622     1.0453657083
   18      C       0.5583044034    -2.0839353394     1.1852477195
   19      C       4.6661967652     1.5176183469    -0.4185311404
   20      C       6.1527866845     1.3891514394     0.1044983345
   21      C       6.4075981982    -0.1548763528    -0.0704650310
   22      C       5.0038032428    -0.6308145126    -0.6120948088
   23      O       4.5763313799     0.4919218314    -1.4800521071
   24      H       3.9201915628     1.3596910378     1.7037728154
   25      H       4.4334845311    -0.9647867755     1.5243600026
   26      H       4.3920723713     2.5139792651    -0.8166343104
   27      H       6.8336685936     1.9858387303    -0.5232087742
   28      H       6.2542515486     1.7216657842     1.1501070373
   29      H       7.1957193228    -0.3506492826    -0.8147908039
   30      H       6.6802478974    -0.6525216214     0.8735892176
   31      H       4.9938784657    -1.5824292371    -1.1783230302
   32      O      -1.3784763330    -2.0803939814    -1.0988785869
   33      C      -1.5965242635     2.6838959188     1.6910930346
   34      C      -4.8323038870    -0.3857510042     0.7469100776
   35      C      -6.2169652866    -0.6574871932     0.0350421067
   36      C      -5.8509811059    -1.8699143832    -0.9003270395
   37      C      -4.3078005357    -2.0166183592    -0.6080475276
   38      O      -4.2078364035    -1.7232256963     0.8417324602
   39      H      -4.3737733961     1.2326508913    -0.7536139628
   40      H      -3.9902408127    -0.5636722650    -2.2846628458
   41      H      -0.6153220588     2.4162343789     1.2352610484
   42      H      -4.9018640829     0.0852537029     1.7468107452
   43      H      -6.9833205116    -0.9328495706     0.7769071447
   44      H      -6.5702300847     0.2215416776    -0.5274699948
   45      H      -6.3871802866    -2.7847841896    -0.6018938663
   46      H      -6.0581842141    -1.6679408704    -1.9633473657
   47      H      -3.8618424002    -3.0049745988    -0.8320727949
   48      H      -1.6388597845     2.2470561852     2.7095378301
   49      H      -1.6944472574     3.7823605616     1.7623736502
   50      H      -0.1241204914    -1.7908117538     2.0034995439
   51      H       0.8608383235    -3.1426070934     1.3173059881
   52      H       0.0188586530    -1.9849740619     0.2152592723
   53      H       0.3059394383     2.0050086921    -1.5665541434
   54      H      -0.1679358850     0.7964407103    -0.3029219976
   55      H       0.3294138875     0.2249977421    -3.3165167113
   56      H       0.3573013567    -1.0807162659    -2.0523572798
 ----------------------------------------------------------------

    9   -1510.2998043461      4.71E-09 Convergence criterion met
 Total energy in the final basis set = -1510.29980435
 Final energy is   -1510.29980434613
 **  OPTIMIZATION CONVERGED  **

                    Orbital Energies (a.u.)
 --------------------------------------------------------------

 Alpha MOs
 -- Occupied --
-18.946 -18.930 -18.930 -18.917 -18.891 -18.885 -18.883 -18.880
-18.872 -18.861 -10.110 -10.104 -10.098 -10.087 -10.066 -10.064
-10.061 -10.057 -10.055 -10.053 -10.052 -10.045 -10.040 -10.034
-10.033 -10.029 -10.024 -10.022 -10.017 -10.015  -1.022  -1.012
 -1.008  -0.994  -0.974  -0.965  -0.944  -0.939  -0.932  -0.922
 -0.767  -0.758  -0.728  -0.721  -0.712  -0.702  -0.692  -0.663
 -0.642  -0.612  -0.595  -0.578  -0.548  -0.541  -0.539  -0.532
 -0.516  -0.506  -0.482  -0.472  -0.464  -0.458  -0.455  -0.440
 -0.434  -0.429  -0.424  -0.419  -0.410  -0.400  -0.397  -0.396
 -0.392  -0.376  -0.371  -0.364  -0.361  -0.356  -0.353  -0.346
 -0.342  -0.335  -0.334  -0.330  -0.328  -0.326  -0.318  -0.314
 -0.307  -0.307  -0.302  -0.300  -0.289  -0.287  -0.280  -0.274
 -0.266  -0.261  -0.250  -0.240  -0.238  -0.236  -0.229  -0.188
 -0.178  -0.168  -0.165  -0.160  -0.154  -0.152  -0.148  -0.140
 -0.138

          Ground-State Mulliken Net Atomic Charges

     Atom                 Charge (a.u.)
  ----------------------------------------
      1 O                    -0.215169
      2 C                     0.216589
      3 C                    -0.077677
      4 C                    -0.079293
      5 C                     0.219551
      6 O                    -0.177749
      7 C                    -0.053577
      8 C                    -0.063847
      9 O                    -0.168693
     10 C                     0.218409
     11 C                    -0.078372
     12 C                    -0.078140
     13 C                     0.212875
     14 O                    -0.215971
     15 O                    -0.165318
     16 O                    -0.177565
     17 O                    -0.219134
     18 C                    -0.138670
     19 C                     0.025857
     20 C                    -0.144152
     21 C                    -0.143808
     22 C                     0.024152
     23 O                    -0.186485
     24 H                     0.084684
     25 H                     0.082417
     26 H                     0.080692
     27 H                     0.077109
     28 H                     0.073103
     29 H                     0.077232
     30 H                     0.072803
     31 H                     0.090505
     32 O                    -0.210289
     33 C                    -0.139697
     34 C                     0.025663
     35 C                    -0.143946
     36 C                    -0.143396
     37 C                     0.024869
     38 O                    -0.187574
     39 H                     0.088907
     40 H                     0.086507
     41 H                     0.114948
     42 H                     0.083797
     43 H                     0.079129
     44 H                     0.074532
     45 H                     0.079181
     46 H                     0.074121
     47 H                     0.090845
     48 H                     0.085707
     49 H                     0.088817
     50 H                     0.089230
     51 H                     0.079244
     52 H                     0.107956
     53 H                     0.076724
     54 H                     0.107092
     55 H                     0.089244
     56 H                     0.106033
  ----------------------------------------
  Sum of atomic charges =     0.000000

                    Cartesian Multipole Moments
 -----------------------------------------------------------------
    Charge (ESU x 10^10)
                 0.0000
    Dipole Moment (Debye)
         X      -1.4615      Y       1.9345      Z       0.3236
       Tot       2.4460
    Quadrupole Moments (Debye-Ang)
        XX    -135.4100     XY       2.1471     YY    -162.4228
        XZ       9.8553     YZ      -0.1745     ZZ    -159.7681

 Total job time:  136.39s(wall), 6506.18s(cpu)
        *  Thank you very much for using Q-Chem.  Have a nice day.  *
