 Q-Chem 5.0, Q-Chem, Inc., Pleasanton, CA (2017)
 Q-Chem 5.0.1 for Intel X86 EM64T Linux

User input:
--------------------------------------------------------------
$molecule
0  1
O -3.94934 -3.66094 2.70899
C -3.26408 -4.56952 2.26188
C -3.36658 -6.02376 2.66595
C -2.54875 -6.47278 3.88799
C -1.8594 -5.38119 4.67624
O -0.97702 -4.71587 3.87363
C -0.11772 -3.82779 4.59624
C -0.88907 -3.15342 5.726
O -0.00419 -2.3248 6.49623
C -0.60614 -1.50582 7.39405
C 0.37903 -0.73049 8.23604
C 1.85515 -1.06931 7.98194
C 2.14637 -1.84279 6.71165
O 2.6884 -1.38923 5.71413
O -2.27587 -4.26984 1.37856
O 2.29347 -3.18368 6.92778
O -1.81849 -1.36102 7.49139
C 3.1172 -4.00807 6.18447
C 0.36607 0.78443 7.97117
C 0.89599 1.51882 9.20069
C 2.36157 1.13701 9.14667
C 2.39721 0.36874 7.81898
O 1.39968 0.98517 7.04
H 0.10038 -0.93013 9.29551
H 2.33931 -1.59721 8.83403
H -0.63516 1.17486 7.68593
H 0.80384 2.60868 8.99036
H 0.38108 1.28682 10.15775
H 2.96371 2.07039 9.08186
H 2.72091 0.50761 9.98944
H 3.42647 0.38659 7.39718
O -1.52929 -5.74423 5.80209
C -1.99344 -2.99594 0.93228
C -4.79456 -6.36747 3.14149
C -5.04861 -7.86714 3.00263
C -4.18575 -8.39971 4.12348
C -3.68947 -7.0863 4.73809
O -4.75149 -6.19021 4.53367
H -3.16245 -6.62742 1.75284
H -1.77776 -7.23425 3.63225
H -1.71062 -2.34555 1.78776
H -5.58494 -5.80087 2.60108
H -6.1168 -8.04608 3.26226
H -4.83952 -8.29218 1.9974
H -4.84076 -8.94117 4.84213
H -3.34511 -9.05499 3.80824
H -3.40723 -7.2652 5.79812
H -2.87606 -2.56863 0.41006
H -1.14339 -3.03988 0.22106
H 3.00976 -5.05193 6.54382
H 4.17507 -3.69442 6.31221
H 2.86186 -3.96242 5.10572
H -1.6532 -2.51664 5.22357
H -1.4278 -3.73327 6.49042
H 0.34187 -3.08953 3.90558
H 0.67992 -4.44031 5.05569
$end

$opt
CONSTRAINT
tors           1           2           3           4     -86.841
tors           3           4           5           6     -60.296
tors           4           5           6           7    -169.659
tors           5           6           7           8     -37.771
tors           6           7           8           9    +176.597
tors           7           8           9          10    +169.800
tors           8           9          10          11    +176.104
tors           9          10          11          12      -3.437
tors          11          12          13          14    +107.996
ENDCONSTRAINT
$end

$rem
JOBTYPE                   OPT
METHOD                    B3LYP
DFT_D                     d3_op
BASIS                     STO-3G
GEOM_OPT_MAX_CYCLES       100
GEOM_OPT_TOL_GRADIENT     300
GEOM_OPT_TOL_DISPLACEMENT 1200
GEOM_OPT_TOL_ENERGY       100
SYMMETRY                  False
THRESH                    12
SCF_CONVERGENCE           8
MAX_SUB_FILE_NUM          128
MEM_STATIC                400
MEM_TOTAL                 4000
$end
--------------------------------------------------------------

   15   -1510.1036018208      8.54E-09 Convergence criterion met
 Total energy in the final basis set = -1510.10360182
   15   -1510.1783619100      1.56E-09 Convergence criterion met
 Total energy in the final basis set = -1510.17836191
   15   -1510.2185587285      1.98E-09 Convergence criterion met
 Total energy in the final basis set = -1510.21855873
   15   -1510.2428110141      1.71E-09 Convergence criterion met
 Total energy in the final basis set = -1510.24281101
   14   -1510.2556830234      7.68E-09 Convergence criterion met
 Total energy in the final basis set = -1510.25568302
   14   -1510.2637270164      3.48E-09 Convergence criterion met
 Total energy in the final basis set = -1510.26372702
   12   -1510.2685345358      7.47E-09 Convergence criterion met
 Total energy in the final basis set = -1510.26853454
   13   -1510.2715686915      3.56E-09 Convergence criterion met
   11   -1510.2753825660      2.17E-09 Convergence criterion met
 Total energy in the final basis set = -1510.27538257
   11   -1510.2753910114      2.42E-09 Convergence criterion met
 Total energy in the final basis set = -1510.27539101
   11   -1510.2754104530      9.65E-09 Convergence criterion met
 Total energy in the final basis set = -1510.27541045
   11   -1510.2754229001      2.27E-09 Convergence criterion met
 Total energy in the final basis set = -1510.27542290
   11   -1510.2754527783      9.94E-09 Convergence criterion met
 Total energy in the final basis set = -1510.27545278
   10   -1510.2754551493      7.70E-09 Convergence criterion met
 Total energy in the final basis set = -1510.27545515

             Standard Nuclear Orientation (Angstroms)
    I     Atom           X                Y                Z
 ----------------------------------------------------------------
    1      O      -3.2852201600     2.2543622839     0.7812734738
    2      C      -3.6374865133     1.7011470549    -0.2826396781
    3      C      -4.6309800559     0.5000839254    -0.4563557475
    4      C      -3.9405914179    -0.9280854975    -0.3294006948
    5      C      -2.4284818557    -0.8760828577     0.1083690557
    6      O      -1.7379376929    -0.1283505413    -0.8936463874
    7      C      -0.2541577073    -0.1424265638    -0.8258597835
    8      C       0.4064455521    -0.1094391687     0.5991862798
    9      O       1.8633874191    -0.2177450207     0.3387286757
   10      C       2.6153108804     0.0330969409     1.5241348402
   11      C       4.1508499336    -0.1798836277     1.2656647607
   12      C       4.6049833319    -0.6965552335    -0.1644914236
   13      C       3.4930946577    -1.2573690366    -1.1232408307
   14      O       3.0253642909    -0.7347442969    -2.1566201977
   15      O      -3.2346900096     2.1380274456    -1.5869025932
   16      O       3.1792501452    -2.5852445210    -0.6717766978
   17      O       2.1063508643     0.3889176635     2.6092210588
   18      C       2.1870426212    -3.2128762549    -1.5698489998
   19      C       4.8485506928     1.2514948063     1.2773814027
   20      C       6.4177427954     1.0771186587     1.3537159115
   21      C       6.7581280727     0.6832954742    -0.1319658026
   22      C       5.3109219164     0.5999230399    -0.7521307523
   23      O       4.6040607195     1.7284927319    -0.1028395007
   24      H       4.5387289489    -0.8302680453     2.0703101601
   25      H       5.3408648399    -1.5095944487    -0.0283459131
   26      H       4.4165050972     1.9533138881     2.0174271196
   27      H       6.8976150909     2.0252750315     1.6430982770
   28      H       6.7095127075     0.2988607763     2.0771558311
   29      H       7.3450509008     1.4706306675    -0.6315602667
   30      H       7.3058266341    -0.2695396358    -0.2080508283
   31      H       5.2464328349     0.6878903187    -1.8541358754
   32      O      -1.9287775654    -1.4575158033     1.0959605243
   33      C      -2.2550387927     3.2415063798    -1.4662601932
   34      C      -5.7031560429     0.4152105273     0.7104562769
   35      C      -6.8999997403    -0.4837228925     0.2057480989
   36      C      -6.2443534871    -1.9143316846     0.2563758677
   37      C      -4.8103606750    -1.5753518722     0.8236725261
   38      O      -5.0483259539    -0.4304681950     1.7341330637
   39      H      -5.1121722563     0.6038527656    -1.4448592533
   40      H      -4.0058787070    -1.4869273109    -1.2809952817
   41      H      -1.3422303071     2.9168310268    -0.9266221196
   42      H      -5.9890125510     1.3935131292     1.1426699493
   43      H      -7.7542098861    -0.4082232541     0.8971998716
   44      H      -7.2362375058    -0.2034078814    -0.8053677485
   45      H      -6.7842579423    -2.5831680843     0.9451032592
   46      H      -6.1939955895    -2.3935858307    -0.7344970689
   47      H      -4.2973130142    -2.3950246710     1.3634717382
   48      H      -2.6847149769     4.1150956862    -0.9345010502
   49      H      -1.9894942016     3.5299847499    -2.4998638475
   50      H       2.1119930974    -4.2706636709    -1.2568525017
   51      H       2.5007979703    -3.1581837857    -2.6322256442
   52      H       1.1906529823    -2.7344988204    -1.4754349221
   53      H       0.1664595716     0.8355154856     1.1318375982
   54      H       0.0264248637    -0.9586923200     1.2052356365
   55      H       0.0712277149     0.7414254651    -1.4118750122
   56      H       0.1137681207    -1.0498570447    -1.3543619848
 ----------------------------------------------------------------

    9   -1510.2754545115      8.73E-09 Convergence criterion met
 Total energy in the final basis set = -1510.27545451
 Final energy is   -1510.27545451153
 **  OPTIMIZATION CONVERGED  **

                    Orbital Energies (a.u.)
 --------------------------------------------------------------

 Alpha MOs
 -- Occupied --
-18.944 -18.940 -18.931 -18.927 -18.888 -18.886 -18.886 -18.874
-18.870 -18.866 -10.111 -10.102 -10.098 -10.096 -10.079 -10.068
-10.063 -10.061 -10.059 -10.058 -10.058 -10.057 -10.040 -10.039
-10.036 -10.034 -10.020 -10.020 -10.019 -10.019  -1.020  -1.015
 -1.006  -1.003  -0.970  -0.969  -0.949  -0.938  -0.932  -0.930
 -0.764  -0.762  -0.730  -0.722  -0.710  -0.704  -0.699  -0.662
 -0.661  -0.618  -0.597  -0.589  -0.546  -0.544  -0.537  -0.537
 -0.514  -0.509  -0.488  -0.471  -0.461  -0.459  -0.457  -0.444
 -0.437  -0.430  -0.430  -0.412  -0.411  -0.409  -0.407  -0.401
 -0.391  -0.383  -0.381  -0.369  -0.366  -0.357  -0.352  -0.349
 -0.345  -0.341  -0.334  -0.332  -0.331  -0.329  -0.323  -0.311
 -0.309  -0.307  -0.305  -0.301  -0.297  -0.293  -0.284  -0.276
 -0.270  -0.253  -0.250  -0.249  -0.243  -0.234  -0.233  -0.187
 -0.182  -0.173  -0.171  -0.158  -0.155  -0.147  -0.146  -0.144
 -0.143

          Ground-State Mulliken Net Atomic Charges

     Atom                 Charge (a.u.)
  ----------------------------------------
      1 O                    -0.214107
      2 C                     0.208568
      3 C                    -0.079407
      4 C                    -0.076507
      5 C                     0.214988
      6 O                    -0.170488
      7 C                    -0.047429
      8 C                    -0.057470
      9 O                    -0.171284
     10 C                     0.213080
     11 C                    -0.076998
     12 C                    -0.081192
     13 C                     0.220003
     14 O                    -0.219965
     15 O                    -0.167333
     16 O                    -0.174549
     17 O                    -0.211840
     18 C                    -0.127560
     19 C                     0.024724
     20 C                    -0.144669
     21 C                    -0.143201
     22 C                     0.024096
     23 O                    -0.190968
     24 H                     0.087590
     25 H                     0.083836
     26 H                     0.085855
     27 H                     0.078486
     28 H                     0.073955
     29 H                     0.077819
     30 H                     0.073102
     31 H                     0.088243
     32 O                    -0.206581
     33 C                    -0.127798
     34 C                     0.025138
     35 C                    -0.143441
     36 C                    -0.144630
     37 C                     0.023808
     38 O                    -0.186680
     39 H                     0.085703
     40 H                     0.085721
     41 H                     0.086701
     42 H                     0.086339
     43 H                     0.078281
     44 H                     0.073157
     45 H                     0.078424
     46 H                     0.072543
     47 H                     0.089559
     48 H                     0.088722
     49 H                     0.090000
     50 H                     0.089392
     51 H                     0.088895
     52 H                     0.079727
     53 H                     0.093978
     54 H                     0.111227
     55 H                     0.097088
     56 H                     0.085350
  ----------------------------------------
  Sum of atomic charges =     0.000000

                    Cartesian Multipole Moments
 -----------------------------------------------------------------
    Charge (ESU x 10^10)
                 0.0000
    Dipole Moment (Debye)
         X       0.3379      Y      -1.6942      Z      -2.5583
       Tot       3.0869
    Quadrupole Moments (Debye-Ang)
        XX    -135.4383     XY      -0.5755     YY    -154.1384
        XZ      11.1405     YZ       1.2308     ZZ    -170.4341

 Total job time:  74.57s(wall), 3547.64s(cpu)
        *  Thank you very much for using Q-Chem.  Have a nice day.  *
