 Q-Chem 5.0, Q-Chem, Inc., Pleasanton, CA (2017)
 Q-Chem 5.0.1 for Intel X86 EM64T Linux

User input:
--------------------------------------------------------------
$molecule
0  1
O -3.94934 -3.66094 2.70899
C -3.26408 -4.56952 2.26188
C -3.36658 -6.02376 2.66595
C -3.80372 -6.32282 4.10932
C -4.26084 -5.14022 4.9343
O -3.18006 -4.51553 5.48846
C -3.53757 -3.53484 6.46809
C -5.03942 -3.27258 6.42555
O -5.40433 -2.34795 7.46227
C -6.67089 -1.86778 7.39603
C -7.01289 -0.94965 8.54527
C -5.80604 -0.43133 9.34096
C -4.45417 -0.60359 8.67803
O -3.77958 0.29663 8.19939
O -2.223 -4.25543 1.44671
O -3.75922 -1.67367 9.16706
O -7.50756 -2.25325 6.58849
C -2.38199 -1.7868 9.16539
C -7.63911 0.38622 8.08912
C -8.4808 0.96405 9.22499
C -7.395 1.3609 10.204
C -6.14766 1.07329 9.35787
O -6.56736 1.29322 8.03413
H -7.75765 -1.4884 9.17352
H -5.75186 -0.85969 10.36687
H -8.25151 0.29785 7.16526
H -8.95839 1.88904 8.82851
H -9.26842 0.29671 9.63627
H -7.49713 2.44779 10.41846
H -7.37588 0.78226 11.15295
H -5.29489 1.69538 9.70939
O -5.29605 -4.64843 4.48731
C -1.93057 -2.97815 1.01622
C -4.50076 -6.73594 1.89404
C -4.23636 -8.24111 1.85102
C -4.5147 -8.61668 3.29174
C -4.99452 -7.26753 3.83867
O -5.62213 -6.65931 2.7372
H -2.41113 -6.52091 2.38158
H -3.00985 -6.84457 4.69014
H -1.7157 -2.32049 1.88554
H -4.63895 -6.34398 0.86214
H -5.02707 -8.6921 1.20919
H -3.23875 -8.54201 1.46497
H -5.34032 -9.36246 3.30732
H -3.64111 -9.00359 3.85969
H -5.6256 -7.41332 4.74322
H -2.78315 -2.56626 0.4349
H -1.03487 -3.0106 0.36264
H -2.09621 -2.76692 9.59898
H -1.93599 -0.98022 9.78537
H -1.98071 -1.71517 8.13431
H -5.25973 -2.72347 5.47634
H -5.65009 -4.17978 6.66175
H -3.00451 -2.58771 6.24363
H -3.23365 -3.90838 7.46789
$end

$opt
CONSTRAINT
tors           1           2           3           4     -30.885
tors           3           4           5           6     -84.238
tors           4           5           6           7    -169.659
tors           5           6           7           8     -10.910
tors           6           7           8           9    +176.597
tors           7           8           9          10    +169.800
tors           8           9          10          11    +177.471
tors           9          10          11          12     +15.704
tors          11          12          13          14    +107.996
ENDCONSTRAINT
$end

$rem
JOBTYPE                   OPT
METHOD                    B3LYP
DFT_D                     d3_op
BASIS                     STO-3G
GEOM_OPT_MAX_CYCLES       100
GEOM_OPT_TOL_GRADIENT     300
GEOM_OPT_TOL_DISPLACEMENT 1200
GEOM_OPT_TOL_ENERGY       100
SYMMETRY                  False
THRESH                    12
SCF_CONVERGENCE           8
MAX_SUB_FILE_NUM          128
MEM_STATIC                400
MEM_TOTAL                 4000
$end
--------------------------------------------------------------

   15   -1510.0896901801      8.73E-09 Convergence criterion met
 Total energy in the final basis set = -1510.08969018
   14   -1510.1664420261      9.13E-09 Convergence criterion met
 Total energy in the final basis set = -1510.16644203
   14   -1510.2138578894      7.54E-09 Convergence criterion met
 Total energy in the final basis set = -1510.21385789
   14   -1510.2395003132      4.30E-09 Convergence criterion met
 Total energy in the final basis set = -1510.23950031
   14   -1510.2514419519      4.08E-09 Convergence criterion met
 Total energy in the final basis set = -1510.25144195
   14   -1510.2589509141      5.25E-09 Convergence criterion met
 Total energy in the final basis set = -1510.25895091
   13   -1510.2636535944      3.30E-09 Convergence criterion met
 Total energy in the final basis set = -1510.26365359
   13   -1510.2667684440      4.63E-09 Convergence criterion met
   12   -1510.2714448339      3.06E-09 Convergence criterion met
 Total energy in the final basis set = -1510.27144483
   11   -1510.2714768596      6.59E-09 Convergence criterion met
 Total energy in the final basis set = -1510.27147686
   11   -1510.2714938865      2.88E-09 Convergence criterion met
 Total energy in the final basis set = -1510.27149389
    9   -1510.2715041150      9.12E-09 Convergence criterion met
 Total energy in the final basis set = -1510.27150411
   10   -1510.2715114339      9.29E-09 Convergence criterion met
 Total energy in the final basis set = -1510.27151143
    9   -1510.2715149672      6.01E-09 Convergence criterion met
 Total energy in the final basis set = -1510.27151497

             Standard Nuclear Orientation (Angstroms)
    I     Atom           X                Y                Z
 ----------------------------------------------------------------
    1      O      -2.8180010191     0.3866857368     1.7168980871
    2      C      -3.8351885325     0.9721824927     1.2814133357
    3      C      -4.7312208787     0.5348039679     0.0783320688
    4      C      -3.9171450364    -0.2364986511    -1.0416306897
    5      C      -2.4269613672    -0.5604074168    -0.6274399481
    6      O      -1.6733427335     0.6175720730    -0.9314110916
    7      C      -0.1924786397     0.5254787489    -0.8646863397
    8      C       0.4954816605    -0.7353544103    -0.2315240078
    9      O       1.9520200973    -0.4829687039    -0.4313911974
   10      C       2.7197118903    -1.4341012817     0.3031276012
   11      C       4.2635489889    -1.2400765095     0.0665402834
   12      C       4.7491726225     0.1238063797    -0.5785193881
   13      C       3.6786701058     1.0341404747    -1.2800992591
   14      O       3.2168338205     2.1219122986    -0.8751410035
   15      O      -4.3917582886     2.1535203765     1.8625371050
   16      O       3.4533207988     0.5011576031    -2.5959682443
   17      O       2.2169596826    -2.3119443971     1.0384973186
   18      C       2.5977351218     1.4206240811    -3.3768422008
   19      C       4.9452329495    -1.1302544890     1.4973644363
   20      C       6.5162981713    -1.2221971465     1.3542806765
   21      C       6.8677910692     0.2261742426     0.8469069139
   22      C       5.4222585832     0.8334757383     0.6742928063
   23      O       4.6934549902     0.2887715645     1.8431184734
   24      H       4.6330365391    -2.1097556499    -0.5073886299
   25      H       5.5106605148    -0.1014089846    -1.3470658490
   26      H       4.4945467837    -1.8042441594     2.2520800267
   27      H       6.9818458695    -1.4362899489     2.3291684378
   28      H       6.8171449221    -2.0059914285     0.6405709840
   29      H       7.4334047483     0.7912414124     1.6049884234
   30      H       7.4396075051     0.2246986523    -0.0947524103
   31      H       5.3555583855     1.9386892145     0.6574800630
   32      O      -1.9860456338    -1.6672836440    -0.2577599663
   33      C      -3.5852901482     2.5695837972     3.0345996103
   34      C      -5.8144355840    -0.5642433693     0.4769722165
   35      C      -6.9165610968    -0.5775046274    -0.6542287209
   36      C      -6.1366610910    -1.2855200041    -1.8237810700
   37      C      -4.7481183869    -1.5836438349    -1.1328181708
   38      O      -5.1054365849    -1.8460105532     0.2818776612
   39      H      -5.2237753579     1.4367492891    -0.3261432096
   40      H      -3.9063408090     0.3279685959    -1.9905864033
   41      H      -2.5357692576     2.7868243759     2.7494584912
   42      H      -6.1986845636    -0.4825512712     1.5123802464
   43      H      -7.7870287446    -1.1715128932    -0.3329900958
   44      H      -7.2572037962     0.4362773213    -0.9185209453
   45      H      -6.6267723907    -2.2243060591    -2.1265345522
   46      H      -6.0268314211    -0.6426181005    -2.7117517858
   47      H      -4.1802093420    -2.4386344254    -1.5474880514
   48      H      -3.5815081779     1.7903371991     3.8240229373
   49      H      -4.0623537971     3.4882250319     3.4225200742
   50      H       2.3542003424     0.8924247170    -4.3171391942
   51      H       3.1293840870     2.3657194763    -3.6133932505
   52      H       1.6630030660     1.6753834740    -2.8395095978
   53      H       0.2577949653    -0.8387019567     0.8478257072
   54      H       0.1946948233    -1.6703518479    -0.7456518905
   55      H       0.1525240719     1.4265616941    -0.3129034924
   56      H       0.1746378546     0.6144416809    -1.9108643652
 ----------------------------------------------------------------

    9   -1510.2715171458      5.13E-09 Convergence criterion met
 Total energy in the final basis set = -1510.27151715
 Final energy is   -1510.27151714579
 **  OPTIMIZATION CONVERGED  **

                    Orbital Energies (a.u.)
 --------------------------------------------------------------

 Alpha MOs
 -- Occupied --
-18.940 -18.935 -18.927 -18.924 -18.888 -18.883 -18.880 -18.870
-18.870 -18.864 -10.102 -10.099 -10.098 -10.095 -10.072 -10.068
-10.066 -10.062 -10.060 -10.058 -10.055 -10.054 -10.038 -10.037
-10.034 -10.032 -10.021 -10.020 -10.018 -10.017  -1.016  -1.012
 -1.002  -1.000  -0.970  -0.967  -0.939  -0.936  -0.932  -0.928
 -0.763  -0.760  -0.727  -0.721  -0.710  -0.702  -0.697  -0.665
 -0.660  -0.615  -0.595  -0.585  -0.546  -0.541  -0.537  -0.535
 -0.513  -0.507  -0.483  -0.471  -0.457  -0.454  -0.452  -0.446
 -0.436  -0.432  -0.428  -0.414  -0.411  -0.410  -0.405  -0.397
 -0.387  -0.378  -0.373  -0.366  -0.363  -0.362  -0.351  -0.345
 -0.342  -0.340  -0.335  -0.329  -0.327  -0.325  -0.321  -0.311
 -0.307  -0.305  -0.303  -0.298  -0.294  -0.291  -0.284  -0.274
 -0.267  -0.257  -0.249  -0.242  -0.239  -0.234  -0.231  -0.181
 -0.179  -0.169  -0.168  -0.156  -0.153  -0.145  -0.144  -0.143
 -0.141

          Ground-State Mulliken Net Atomic Charges

     Atom                 Charge (a.u.)
  ----------------------------------------
      1 O                    -0.208342
      2 C                     0.211250
      3 C                    -0.079755
      4 C                    -0.079102
      5 C                     0.218594
      6 O                    -0.177924
      7 C                    -0.048784
      8 C                    -0.047114
      9 O                    -0.172825
     10 C                     0.211979
     11 C                    -0.076673
     12 C                    -0.081894
     13 C                     0.218941
     14 O                    -0.220222
     15 O                    -0.168415
     16 O                    -0.173710
     17 O                    -0.212265
     18 C                    -0.128789
     19 C                     0.024256
     20 C                    -0.145129
     21 C                    -0.142974
     22 C                     0.023701
     23 O                    -0.191311
     24 H                     0.086132
     25 H                     0.083350
     26 H                     0.088868
     27 H                     0.078203
     28 H                     0.073161
     29 H                     0.077552
     30 H                     0.072488
     31 H                     0.088028
     32 O                    -0.210078
     33 C                    -0.128689
     34 C                     0.026140
     35 C                    -0.142921
     36 C                    -0.144837
     37 C                     0.025642
     38 O                    -0.185377
     39 H                     0.086114
     40 H                     0.084188
     41 H                     0.091513
     42 H                     0.083642
     43 H                     0.078398
     44 H                     0.073984
     45 H                     0.078356
     46 H                     0.073110
     47 H                     0.088010
     48 H                     0.090742
     49 H                     0.091506
     50 H                     0.087526
     51 H                     0.084486
     52 H                     0.087002
     53 H                     0.103536
     54 H                     0.101191
     55 H                     0.093788
     56 H                     0.081754
  ----------------------------------------
  Sum of atomic charges =     0.000000

                    Cartesian Multipole Moments
 -----------------------------------------------------------------
    Charge (ESU x 10^10)
                 0.0000
    Dipole Moment (Debye)
         X      -0.5053      Y       1.7895      Z      -2.6379
       Tot       3.2274
    Quadrupole Moments (Debye-Ang)
        XX    -133.0306     XY      -9.4383     YY    -166.1588
        XZ      -1.1078     YZ       4.8017     ZZ    -152.5938

 Total job time:  61.44s(wall), 2920.47s(cpu)
        *  Thank you very much for using Q-Chem.  Have a nice day.  *
