 Q-Chem 5.0, Q-Chem, Inc., Pleasanton, CA (2017)
 Q-Chem 5.0.1 for Intel X86 EM64T Linux

User input:
--------------------------------------------------------------
$molecule
0  1
O -2.8180010191 0.3866857368 1.7168980871
C -3.8351885325 0.9721824927 1.2814133357
C -4.7312208787 0.5348039679 0.0783320688
C -3.9171450364 -0.2364986511 -1.0416306897
C -2.4269613672 -0.5604074168 -0.6274399481
O -1.6733427335 0.617572073 -0.9314110916
C -0.1924786397 0.5254787489 -0.8646863397
C 0.4954816605 -0.7353544103 -0.2315240078
O 1.9520200973 -0.4829687039 -0.4313911974
C 2.7197118903 -1.4341012817 0.3031276012
C 4.2635489889 -1.2400765095 0.0665402834
C 4.7491726225 0.1238063797 -0.5785193881
C 3.6786701058 1.0341404747 -1.2800992591
O 3.2168338205 2.1219122986 -0.8751410035
O -4.3917582886 2.1535203765 1.862537105
O 3.4533207988 0.5011576031 -2.5959682443
O 2.2169596826 -2.3119443971 1.0384973186
C 2.5977351218 1.4206240811 -3.3768422008
C 4.9452329495 -1.130254489 1.4973644363
C 6.5162981713 -1.2221971465 1.3542806765
C 6.8677910692 0.2261742426 0.8469069139
C 5.4222585832 0.8334757383 0.6742928063
O 4.6934549902 0.2887715645 1.8431184734
H 4.6330365391 -2.1097556499 -0.5073886299
H 5.5106605148 -0.1014089846 -1.347065849
H 4.4945467837 -1.8042441594 2.2520800267
H 6.9818458695 -1.4362899489 2.3291684378
H 6.8171449221 -2.0059914285 0.640570984
H 7.4334047483 0.7912414124 1.6049884234
H 7.4396075051 0.2246986523 -0.0947524103
H 5.3555583855 1.9386892145 0.657480063
O -1.9860456338 -1.667283644 -0.2577599663
C -3.5852901482 2.5695837972 3.0345996103
C -5.814435584 -0.5642433693 0.4769722165
C -6.9165610968 -0.5775046274 -0.6542287209
C -6.136661091 -1.2855200041 -1.82378107
C -4.7481183869 -1.5836438349 -1.1328181708
O -5.1054365849 -1.8460105532 0.2818776612
H -5.2237753579 1.4367492891 -0.3261432096
H -3.906340809 0.3279685959 -1.9905864033
H -2.5357692576 2.7868243759 2.7494584912
H -6.1986845636 -0.4825512712 1.5123802464
H -7.7870287446 -1.1715128932 -0.3329900958
H -7.2572037962 0.4362773213 -0.9185209453
H -6.6267723907 -2.2243060591 -2.1265345522
H -6.0268314211 -0.6426181005 -2.7117517858
H -4.180209342 -2.4386344254 -1.5474880514
H -3.5815081779 1.7903371991 3.8240229373
H -4.0623537971 3.4882250319 3.4225200742
H 2.3542003424 0.892424717 -4.3171391942
H 3.129384087 2.3657194763 -3.6133932505
H 1.663003066 1.675383474 -2.8395095978
H 0.2577949653 -0.8387019567 0.8478257072
H 0.1946948233 -1.6703518479 -0.7456518905
H 0.1525240719 1.4265616941 -0.3129034924
H 0.1746378546 0.6144416809 -1.9108643652
$end

$rem
JOBTYPE                   OPT
METHOD                    B3LYP
DFT_D                     d3_op
BASIS                     STO-3G
GEOM_OPT_MAX_CYCLES       100
GEOM_OPT_TOL_GRADIENT     300
GEOM_OPT_TOL_DISPLACEMENT 1200
GEOM_OPT_TOL_ENERGY       100
SYMMETRY                  False
THRESH                    12
SCF_CONVERGENCE           8
MAX_SUB_FILE_NUM          128
MEM_STATIC                400
MEM_TOTAL                 4000
$end
--------------------------------------------------------------

   16   -1510.2715886765      5.53E-09 Convergence criterion met
 Total energy in the final basis set = -1510.27158868
   14   -1510.2732209366      3.25E-09 Convergence criterion met
 Total energy in the final basis set = -1510.27322094
   14   -1510.2754795712      3.39E-09 Convergence criterion met
 Total energy in the final basis set = -1510.27547957
   14   -1510.2771723172      6.85E-09 Convergence criterion met
 Total energy in the final basis set = -1510.27717232
   13   -1510.2789426300      5.63E-09 Convergence criterion met
 Total energy in the final basis set = -1510.27894263
   13   -1510.2804296671      4.70E-09 Convergence criterion met
 Total energy in the final basis set = -1510.28042967
   12   -1510.2817816777      8.70E-09 Convergence criterion met
 Total energy in the final basis set = -1510.28178168
   12   -1510.2833505047      9.79E-09 Convergence criterion met
   11   -1510.2981845504      9.69E-09 Convergence criterion met
 Total energy in the final basis set = -1510.29818455
   12   -1510.2981886829      2.85E-09 Convergence criterion met
 Total energy in the final basis set = -1510.29818868
   11   -1510.2981951483      7.56E-09 Convergence criterion met
 Total energy in the final basis set = -1510.29819515
   11   -1510.2981925025      2.60E-09 Convergence criterion met
 Total energy in the final basis set = -1510.29819250
    9   -1510.2981981063      7.24E-09 Convergence criterion met
 Total energy in the final basis set = -1510.29819811
    9   -1510.2981918821      9.81E-09 Convergence criterion met
 Total energy in the final basis set = -1510.29819188

             Standard Nuclear Orientation (Angstroms)
    I     Atom           X                Y                Z
 ----------------------------------------------------------------
    1      O       1.8658578695    -0.1185840685     1.6041880128
    2      C       2.4940783630    -0.9464842973     0.9034984922
    3      C       3.6597729849    -0.6435561332    -0.0948822349
    4      C       3.6604855187     0.8458142436    -0.6330831280
    5      C       2.4484957605     1.7237614603    -0.1490708327
    6      O       1.2753405494     1.2823585395    -0.8479072047
    7      C       0.0980249253     2.0763583946    -0.4246196462
    8      C      -0.3990174316     1.6754493114     1.0255404933
    9      O      -1.7855683962     1.1384835734     0.9984305107
   10      C      -1.7963933255    -0.2305983951     0.6052191603
   11      C      -3.2877798697    -0.7110712948     0.4861640674
   12      C      -4.1807708507     0.2002011275    -0.4612732089
   13      C      -3.4009049047     1.4272281207    -1.0423708725
   14      O      -2.4445001343     1.4068940808    -1.8520852154
   15      O       2.2846143409    -2.3535640221     0.9391464526
   16      O      -3.9887344916     2.6202492500    -0.5180163531
   17      O      -0.7732249064    -0.9202203578     0.3987532464
   18      C      -3.2436964758     3.8128221723    -0.9843961125
   19      C      -3.3565445315    -2.1001922346    -0.2711469684
   20      C      -4.7888143221    -2.7251693553    -0.0501694419
   21      C      -5.6616399356    -1.8247648506    -1.0021930248
   22      C      -4.5660490764    -0.8508582328    -1.5920226304
   23      O      -3.3618495033    -1.7029421247    -1.6984867976
   24      H      -3.7246852052    -0.7676674381     1.5002562969
   25      H      -5.0709949024     0.5772750779     0.0713339006
   26      H      -2.4964094503    -2.7652522095    -0.0608133521
   27      H      -4.8035228500    -3.7803891324    -0.3662562079
   28      H      -5.1088724604    -2.6663304778     1.0024646713
   29      H      -6.1224655487    -2.4174826246    -1.8083596593
   30      H      -6.4548870240    -1.2803221290    -0.4653704346
   31      H      -4.8106995296    -0.4014574881    -2.5738892224
   32      O       2.4826944892     2.7018439954     0.6278293123
   33      C       1.1349826244    -2.6738876122     1.8227986113
   34      C       5.0608853972    -0.6838980390     0.6599221314
   35      C       6.2098419468    -0.7133251319    -0.4244603353
   36      C       6.2102848560     0.7844633389    -0.9090315670
   37      C       5.0321478772     1.3817600881    -0.0453654683
   38      O       5.1602183877     0.6690377101     1.2481659393
   39      H       3.6208939745    -1.3820387063    -0.9148008110
   40      H       3.6610162080     0.8503074661    -1.7381561392
   41      H       0.2231171855    -2.1555581900     1.4490729016
   42      H       5.1339793503    -1.4604847777     1.4461740751
   43      H       7.1704628331    -0.9901538294     0.0382792175
   44      H       5.9904546777    -1.4248771944    -1.2363968323
   45      H       7.1598999539     1.2860774687    -0.6637971262
   46      H       6.0270527538     0.8828505427    -1.9909459466
   47      H       5.0551837164     2.4768112989     0.1164291333
   48      H       1.3338149119    -2.3713533635     2.8709111621
   49      H       1.0091887823    -3.7704286556     1.7694328532
   50      H      -3.9368499915     4.6705663807    -0.9060849526
   51      H      -2.9021883692     3.6896038267    -2.0315069295
   52      H      -2.3588089519     3.9962715509    -0.3409227297
   53      H       0.3152015042     0.9263835933     1.4460212125
   54      H      -0.4465324806     2.5646588595     1.6831334316
   55      H      -0.7086997448     1.8536105293    -1.1628963718
   56      H       0.3367704022     3.1602929851    -0.4504647295
 ----------------------------------------------------------------

    9   -1510.2981915563      8.23E-09 Convergence criterion met
 Total energy in the final basis set = -1510.29819156
 Final energy is   -1510.29819155632
 **  OPTIMIZATION CONVERGED  **

                    Orbital Energies (a.u.)
 --------------------------------------------------------------

 Alpha MOs
 -- Occupied --
-18.940 -18.935 -18.933 -18.916 -18.889 -18.883 -18.882 -18.876
-18.874 -18.859 -10.105 -10.105 -10.099 -10.086 -10.066 -10.062
-10.060 -10.057 -10.052 -10.050 -10.048 -10.048 -10.041 -10.040
-10.033 -10.029 -10.022 -10.021 -10.017 -10.015  -1.018  -1.011
 -1.008  -0.995  -0.972  -0.966  -0.940  -0.938  -0.932  -0.921
 -0.766  -0.757  -0.727  -0.718  -0.709  -0.703  -0.687  -0.666
 -0.655  -0.612  -0.595  -0.579  -0.547  -0.540  -0.538  -0.531
 -0.512  -0.506  -0.479  -0.464  -0.461  -0.456  -0.451  -0.446
 -0.433  -0.429  -0.422  -0.421  -0.413  -0.412  -0.403  -0.400
 -0.386  -0.374  -0.370  -0.366  -0.360  -0.355  -0.353  -0.345
 -0.343  -0.339  -0.334  -0.333  -0.325  -0.321  -0.319  -0.311
 -0.307  -0.304  -0.303  -0.296  -0.293  -0.287  -0.275  -0.274
 -0.268  -0.255  -0.251  -0.241  -0.236  -0.232  -0.229  -0.187
 -0.179  -0.172  -0.162  -0.155  -0.153  -0.151  -0.146  -0.141
 -0.138

          Ground-State Mulliken Net Atomic Charges

     Atom                 Charge (a.u.)
  ----------------------------------------
      1 O                    -0.215927
      2 C                     0.223253
      3 C                    -0.077811
      4 C                    -0.080032
      5 C                     0.212330
      6 O                    -0.174018
      7 C                    -0.064132
      8 C                    -0.066980
      9 O                    -0.175301
     10 C                     0.217851
     11 C                    -0.078547
     12 C                    -0.079032
     13 C                     0.217671
     14 O                    -0.220209
     15 O                    -0.167005
     16 O                    -0.164922
     17 O                    -0.211779
     18 C                    -0.130972
     19 C                     0.024382
     20 C                    -0.144258
     21 C                    -0.143633
     22 C                     0.025911
     23 O                    -0.185949
     24 H                     0.085818
     25 H                     0.087325
     26 H                     0.089509
     27 H                     0.078602
     28 H                     0.073252
     29 H                     0.078521
     30 H                     0.073801
     31 H                     0.084114
     32 O                    -0.217862
     33 C                    -0.139244
     34 C                     0.025331
     35 C                    -0.143795
     36 C                    -0.143973
     37 C                     0.024674
     38 O                    -0.188818
     39 H                     0.088462
     40 H                     0.084338
     41 H                     0.109178
     42 H                     0.082774
     43 H                     0.077294
     44 H                     0.073940
     45 H                     0.077305
     46 H                     0.073184
     47 H                     0.088963
     48 H                     0.082871
     49 H                     0.085001
     50 H                     0.090889
     51 H                     0.095487
     52 H                     0.087314
     53 H                     0.119694
     54 H                     0.086854
     55 H                     0.107107
     56 H                     0.081202
  ----------------------------------------
  Sum of atomic charges =    -0.000000

                    Cartesian Multipole Moments
 -----------------------------------------------------------------
    Charge (ESU x 10^10)
                -0.0000
    Dipole Moment (Debye)
         X      -2.3220      Y      -0.7861      Z      -0.3901
       Tot       2.4823
    Quadrupole Moments (Debye-Ang)
        XX    -141.0557     XY      -4.4452     YY    -153.5811
        XZ      -9.2145     YZ      -9.4473     ZZ    -163.0387

 Total job time:  122.33s(wall), 5829.25s(cpu)
        *  Thank you very much for using Q-Chem.  Have a nice day.  *
