 Q-Chem 5.0, Q-Chem, Inc., Pleasanton, CA (2017)
 Q-Chem 5.0.1 for Intel X86 EM64T Linux

User input:
--------------------------------------------------------------
$molecule
0  1
O -3.94934 -3.66094 2.70899
C -3.26408 -4.56952 2.26188
C -3.36658 -6.02376 2.66595
C -2.11279 -6.67437 3.27306
C -0.95207 -5.75181 3.57255
O -0.98008 -4.68078 2.72547
C 0.20831 -3.88487 2.78454
C 0.71213 -3.7984 4.22149
O 1.94689 -3.06597 4.26394
C 2.38571 -2.73412 5.50348
C 3.87149 -2.46773 5.54989
C 4.37236 -1.41707 4.54813
C 3.30566 -0.54652 3.91489
O 3.11676 0.63575 4.16212
O -2.65918 -4.35376 1.05539
O 2.61882 -1.09096 2.87614
O 1.65125 -2.63428 6.47863
C 1.66831 -0.42067 2.13352
C 4.39014 -1.89213 6.88092
C 5.87663 -2.2102 7.03181
C 6.46907 -1.29409 5.9816
C 5.20865 -0.55264 5.52025
O 4.40097 -0.50286 6.67226
H 4.35519 -3.4522 5.35836
H 5.00331 -1.82845 3.72956
H 3.83169 -2.2527 7.77177
H 6.18835 -1.84644 8.03728
H 6.14622 -3.28359 6.93132
H 7.17298 -0.59446 6.48484
H 6.9783 -1.80495 5.1359
H 5.48913 0.42929 5.07892
O 0.06507 -6.34584 3.91135
C -2.61863 -3.13646 0.4063
C -4.36034 -6.22774 3.83226
C -4.84557 -7.67743 3.86661
C -3.60966 -8.37507 4.38916
C -2.68758 -7.17371 4.61138
O -3.5629 -6.13965 4.98582
H -3.74768 -6.57623 1.77764
H -1.72778 -7.50843 2.64289
H -2.10617 -2.38129 1.03939
H -5.238 -5.54628 3.79068
H -5.64326 -7.74785 4.64052
H -5.23641 -8.06028 2.89936
H -3.85835 -8.84625 5.36633
H -3.1641 -9.13088 3.70676
H -1.89618 -7.4323 5.34943
H -3.64861 -2.79209 0.17278
H -2.05577 -3.24909 -0.5428
H 1.2835 -1.09315 1.34037
H 2.11891 0.47226 1.64996
H 0.82355 -0.11085 2.78525
H -0.0774 -3.23877 4.77361
H 0.94065 -4.67786 4.83682
H 0.00702 -2.87931 2.36388
H 0.99413 -4.37406 2.16865
$end

$opt
CONSTRAINT
tors           1           2           3           4    -119.994
tors           3           4           5           6     -27.767
tors           4           5           6           7    -169.659
tors           5           6           7           8     -37.771
tors           6           7           8           9    +176.597
tors           7           8           9          10    +169.800
tors           8           9          10          11    +157.670
tors           9          10          11          12     +54.287
tors          11          12          13          14    +107.996
ENDCONSTRAINT
$end

$rem
JOBTYPE                   OPT
METHOD                    B3LYP
DFT_D                     d3_op
BASIS                     STO-3G
GEOM_OPT_MAX_CYCLES       100
GEOM_OPT_TOL_GRADIENT     300
GEOM_OPT_TOL_DISPLACEMENT 1200
GEOM_OPT_TOL_ENERGY       100
SYMMETRY                  False
THRESH                    12
SCF_CONVERGENCE           8
MAX_SUB_FILE_NUM          128
MEM_STATIC                400
MEM_TOTAL                 4000
$end
--------------------------------------------------------------

   16   -1510.1036272854      3.72E-09 Convergence criterion met
 Total energy in the final basis set = -1510.10362729
   14   -1510.1789350402      7.26E-09 Convergence criterion met
 Total energy in the final basis set = -1510.17893504
   14   -1510.2203673691      5.45E-09 Convergence criterion met
 Total energy in the final basis set = -1510.22036737
   14   -1510.2435839908      9.61E-09 Convergence criterion met
 Total energy in the final basis set = -1510.24358399
   14   -1510.2546012909      8.69E-09 Convergence criterion met
 Total energy in the final basis set = -1510.25460129
   13   -1510.2603854754      9.02E-09 Convergence criterion met
 Total energy in the final basis set = -1510.26038548
   13   -1510.2635322840      3.92E-09 Convergence criterion met
 Total energy in the final basis set = -1510.26353228
   13   -1510.2650414908      2.17E-09 Convergence criterion met
   11   -1510.2671413321      3.72E-09 Convergence criterion met
 Total energy in the final basis set = -1510.26714133
   10   -1510.2671451070      6.26E-09 Convergence criterion met
 Total energy in the final basis set = -1510.26714511
    9   -1510.2671501116      7.32E-09 Convergence criterion met
 Total energy in the final basis set = -1510.26715011
    9   -1510.2671541637      8.93E-09 Convergence criterion met
 Total energy in the final basis set = -1510.26715416
    9   -1510.2671565574      8.07E-09 Convergence criterion met
 Total energy in the final basis set = -1510.26715656
    9   -1510.2671579361      3.76E-09 Convergence criterion met
 Total energy in the final basis set = -1510.26715794

             Standard Nuclear Orientation (Angstroms)
    I     Atom           X                Y                Z
 ----------------------------------------------------------------
    1      O      -3.7392108058     1.8937155705     1.5964337604
    2      C      -4.0029345710     1.5326119150     0.4299734198
    3      C      -4.8667150163     0.3007566741    -0.0190867652
    4      C      -4.1569748508    -0.7982504295    -0.9109085592
    5      C      -2.5847506489    -0.9064272326    -0.7824586476
    6      O      -2.0495552707     0.3580468730    -0.4089399372
    7      C      -0.5731379613     0.5089299387    -0.4706603272
    8      C       0.3038558686    -0.7201347304    -0.0404546990
    9      O       1.7031271868    -0.2891959373    -0.2913941671
   10      C       2.6218129051    -1.2286458466     0.2787938585
   11      C       4.0191434939    -1.1147851671    -0.4377969172
   12      C       4.6868730525     0.3282352332    -0.4808329897
   13      C       3.7905746462     1.5412156673    -0.0508798075
   14      O       3.8787498733     2.2126569679     0.9998732949
   15      O      -3.7679010438     2.3417146861    -0.7356862557
   16      O       2.9343493889     1.8868284045    -1.1475196536
   17      O       2.3104389861    -2.0709191785     1.1482182406
   18      C       2.1090370677     3.0616078925    -0.7882869056
   19      C       5.0910931222    -1.9000412915     0.4253660153
   20      C       6.4166379940    -2.0810438138    -0.4136446611
   21      C       7.0482050368    -0.6425742142    -0.3085534121
   22      C       5.9224692795     0.1174090836     0.4948579295
   23      O       5.4511034219    -0.9015216373     1.4595842941
   24      H       3.9072055884    -1.5246959902    -1.4588874020
   25      H       5.0292606533     0.5362771423    -1.5109465050
   26      H       4.6871374173    -2.8160757154     0.8989452375
   27      H       7.0646717060    -2.8440122186     0.0456895692
   28      H       6.2073170017    -2.3762769060    -1.4543992922
   29      H       7.9864350782    -0.6573300934     0.2686823655
   30      H       7.2440730432    -0.1873178507    -1.2923998823
   31      H       6.2398931243     1.0356734490     1.0260028985
   32      O      -1.9322294246    -1.9419089173    -1.0430135457
   33      C      -2.9979323628     3.5468957448    -0.3603032429
   34      C      -5.4393829027    -0.5849709772     1.1691012722
   35      C      -6.8107826324    -1.1866435276     0.6741110840
   36      C      -6.3023857706    -2.1968822341    -0.4220205063
   37      C      -4.7367577989    -2.1095999349    -0.2298191357
   38      O      -4.5615338376    -1.7790472041     1.2069026024
   39      H      -5.7047199937     0.7257381286    -0.6022835297
   40      H      -4.4173962900    -0.6989067881    -1.9807832730
   41      H      -1.9821443009     3.2851010022     0.0002117872
   42      H      -5.4512740698    -0.0763884708     2.1528400421
   43      H      -7.3186689550    -1.7123926566     1.4986746814
   44      H      -7.4897012099    -0.4189614599     0.2699505775
   45      H      -6.6580510879    -3.2210151016    -0.2276583756
   46      H      -6.6084428952    -1.9069342147    -1.4403343664
   47      H      -4.1699387530    -3.0249191432    -0.4903408027
   48      H      -3.5094446428     4.1311556818     0.4318348754
   49      H      -2.9147485289     4.1579561568    -1.2779386009
   50      H       1.4555402490     3.2541123365    -1.6590185934
   51      H       2.7342290366     3.9563004365    -0.5890502895
   52      H       1.4853691067     2.8654071652     0.1074445341
   53      H       0.1422242306    -0.9700225939     1.0299858086
   54      H       0.0289003003    -1.6038460671    -0.6536304908
   55      H      -0.3510752465     1.3731809394     0.1878991120
   56      H      -0.2923837680     0.7879453971    -1.5113554877
 ----------------------------------------------------------------

    8   -1510.2671583784      9.59E-09 Convergence criterion met
 Total energy in the final basis set = -1510.26715838
 Final energy is   -1510.26715837845
 **  OPTIMIZATION CONVERGED  **

                    Orbital Energies (a.u.)
 --------------------------------------------------------------

 Alpha MOs
 -- Occupied --
-18.952 -18.933 -18.931 -18.925 -18.887 -18.885 -18.883 -18.879
-18.874 -18.868 -10.114 -10.100 -10.098 -10.098 -10.084 -10.068
-10.066 -10.062 -10.059 -10.057 -10.056 -10.055 -10.043 -10.039
-10.036 -10.036 -10.021 -10.019 -10.019 -10.018  -1.024  -1.013
 -1.007  -1.003  -0.970  -0.967  -0.951  -0.938  -0.934  -0.930
 -0.765  -0.761  -0.731  -0.722  -0.710  -0.704  -0.700  -0.664
 -0.661  -0.619  -0.598  -0.590  -0.545  -0.544  -0.538  -0.536
 -0.513  -0.508  -0.488  -0.472  -0.463  -0.459  -0.456  -0.446
 -0.439  -0.431  -0.428  -0.414  -0.411  -0.411  -0.407  -0.403
 -0.393  -0.386  -0.375  -0.371  -0.370  -0.361  -0.352  -0.347
 -0.343  -0.340  -0.334  -0.333  -0.331  -0.327  -0.327  -0.315
 -0.310  -0.309  -0.304  -0.302  -0.294  -0.294  -0.287  -0.273
 -0.272  -0.254  -0.251  -0.248  -0.242  -0.234  -0.231  -0.190
 -0.180  -0.175  -0.170  -0.159  -0.157  -0.148  -0.147  -0.144
 -0.141

          Ground-State Mulliken Net Atomic Charges

     Atom                 Charge (a.u.)
  ----------------------------------------
      1 O                    -0.218641
      2 C                     0.219098
      3 C                    -0.081685
      4 C                    -0.074731
      5 C                     0.219639
      6 O                    -0.167013
      7 C                    -0.044327
      8 C                    -0.059239
      9 O                    -0.176352
     10 C                     0.210643
     11 C                    -0.076480
     12 C                    -0.079917
     13 C                     0.210342
     14 O                    -0.212357
     15 O                    -0.173835
     16 O                    -0.166105
     17 O                    -0.205689
     18 C                    -0.127181
     19 C                     0.023678
     20 C                    -0.145124
     21 C                    -0.143297
     22 C                     0.024074
     23 O                    -0.188844
     24 H                     0.085166
     25 H                     0.084286
     26 H                     0.091121
     27 H                     0.078396
     28 H                     0.072377
     29 H                     0.078114
     30 H                     0.072334
     31 H                     0.088492
     32 O                    -0.212010
     33 C                    -0.127739
     34 C                     0.022484
     35 C                    -0.141863
     36 C                    -0.145650
     37 C                     0.023243
     38 O                    -0.191911
     39 H                     0.083780
     40 H                     0.087232
     41 H                     0.082255
     42 H                     0.090301
     43 H                     0.078379
     44 H                     0.072940
     45 H                     0.078853
     46 H                     0.073071
     47 H                     0.089130
     48 H                     0.088705
     49 H                     0.086959
     50 H                     0.087383
     51 H                     0.088312
     52 H                     0.086038
     53 H                     0.094763
     54 H                     0.107946
     55 H                     0.091106
     56 H                     0.089354
  ----------------------------------------
  Sum of atomic charges =     0.000000

                    Cartesian Multipole Moments
 -----------------------------------------------------------------
    Charge (ESU x 10^10)
                 0.0000
    Dipole Moment (Debye)
         X      -1.0954      Y       1.3693      Z      -4.4590
       Tot       4.7914
    Quadrupole Moments (Debye-Ang)
        XX    -140.7793     XY      -1.5653     YY    -157.6872
        XZ      -5.4007     YZ       0.2291     ZZ    -167.8792

 Total job time:  75.09s(wall), 3571.50s(cpu)
        *  Thank you very much for using Q-Chem.  Have a nice day.  *
