 Q-Chem 5.0, Q-Chem, Inc., Pleasanton, CA (2017)
 Q-Chem 5.0.1 for Intel X86 EM64T Linux

User input:
--------------------------------------------------------------
$molecule
0  1
O -3.7392108058 1.8937155705 1.5964337604
C -4.002934571 1.532611915 0.4299734198
C -4.8667150163 0.3007566741 -0.0190867652
C -4.1569748508 -0.7982504295 -0.9109085592
C -2.5847506489 -0.9064272326 -0.7824586476
O -2.0495552707 0.358046873 -0.4089399372
C -0.5731379613 0.5089299387 -0.4706603272
C 0.3038558686 -0.7201347304 -0.040454699
O 1.7031271868 -0.2891959373 -0.2913941671
C 2.6218129051 -1.2286458466 0.2787938585
C 4.0191434939 -1.1147851671 -0.4377969172
C 4.6868730525 0.3282352332 -0.4808329897
C 3.7905746462 1.5412156673 -0.0508798075
O 3.8787498733 2.2126569679 0.9998732949
O -3.7679010438 2.3417146861 -0.7356862557
O 2.9343493889 1.8868284045 -1.1475196536
O 2.3104389861 -2.0709191785 1.1482182406
C 2.1090370677 3.0616078925 -0.7882869056
C 5.0910931222 -1.9000412915 0.4253660153
C 6.416637994 -2.0810438138 -0.4136446611
C 7.0482050368 -0.6425742142 -0.3085534121
C 5.9224692795 0.1174090836 0.4948579295
O 5.4511034219 -0.9015216373 1.4595842941
H 3.9072055884 -1.5246959902 -1.458887402
H 5.0292606533 0.5362771423 -1.510946505
H 4.6871374173 -2.8160757154 0.8989452375
H 7.064671706 -2.8440122186 0.0456895692
H 6.2073170017 -2.376276906 -1.4543992922
H 7.9864350782 -0.6573300934 0.2686823655
H 7.2440730432 -0.1873178507 -1.2923998823
H 6.2398931243 1.035673449 1.0260028985
O -1.9322294246 -1.9419089173 -1.0430135457
C -2.9979323628 3.5468957448 -0.3603032429
C -5.4393829027 -0.5849709772 1.1691012722
C -6.8107826324 -1.1866435276 0.674111084
C -6.3023857706 -2.1968822341 -0.4220205063
C -4.7367577989 -2.1095999349 -0.2298191357
O -4.5615338376 -1.7790472041 1.2069026024
H -5.7047199937 0.7257381286 -0.6022835297
H -4.41739629 -0.6989067881 -1.980783273
H -1.9821443009 3.2851010022 0.0002117872
H -5.4512740698 -0.0763884708 2.1528400421
H -7.318668955 -1.7123926566 1.4986746814
H -7.4897012099 -0.4189614599 0.2699505775
H -6.6580510879 -3.2210151016 -0.2276583756
H -6.6084428952 -1.9069342147 -1.4403343664
H -4.169938753 -3.0249191432 -0.4903408027
H -3.5094446428 4.1311556818 0.4318348754
H -2.9147485289 4.1579561568 -1.2779386009
H 1.455540249 3.2541123365 -1.6590185934
H 2.7342290366 3.9563004365 -0.5890502895
H 1.4853691067 2.8654071652 0.1074445341
H 0.1422242306 -0.9700225939 1.0299858086
H 0.0289003003 -1.6038460671 -0.6536304908
H -0.3510752465 1.3731809394 0.187899112
H -0.292383768 0.7879453971 -1.5113554877
$end

$rem
JOBTYPE                   OPT
METHOD                    B3LYP
DFT_D                     d3_op
BASIS                     STO-3G
GEOM_OPT_MAX_CYCLES       100
GEOM_OPT_TOL_GRADIENT     300
GEOM_OPT_TOL_DISPLACEMENT 1200
GEOM_OPT_TOL_ENERGY       100
SYMMETRY                  False
THRESH                    12
SCF_CONVERGENCE           8
MAX_SUB_FILE_NUM          128
MEM_STATIC                400
MEM_TOTAL                 4000
$end
--------------------------------------------------------------

   16   -1510.2671610957      5.97E-09 Convergence criterion met
 Total energy in the final basis set = -1510.26716110
   14   -1510.2708675355      6.45E-09 Convergence criterion met
 Total energy in the final basis set = -1510.27086754
   14   -1510.2734232714      5.22E-09 Convergence criterion met
 Total energy in the final basis set = -1510.27342327
   13   -1510.2756785822      7.69E-09 Convergence criterion met
 Total energy in the final basis set = -1510.27567858
   13   -1510.2773748082      2.25E-09 Convergence criterion met
 Total energy in the final basis set = -1510.27737481
   13   -1510.2788881410      3.54E-09 Convergence criterion met
 Total energy in the final basis set = -1510.27888814
   13   -1510.2802646218      3.17E-09 Convergence criterion met
 Total energy in the final basis set = -1510.28026462
   13   -1510.2814768973      3.71E-09 Convergence criterion met
   12   -1510.3040833599      8.49E-09 Convergence criterion met
 Total energy in the final basis set = -1510.30408336
   11   -1510.3041044649      6.48E-09 Convergence criterion met
 Total energy in the final basis set = -1510.30410446
   12   -1510.3041379546      3.06E-09 Convergence criterion met
 Total energy in the final basis set = -1510.30413795
   11   -1510.3041543201      7.45E-09 Convergence criterion met
 Total energy in the final basis set = -1510.30415432
    9   -1510.3041561008      8.11E-09 Convergence criterion met
 Total energy in the final basis set = -1510.30415610
    9   -1510.3041539583      4.52E-09 Convergence criterion met
 Total energy in the final basis set = -1510.30415396

             Standard Nuclear Orientation (Angstroms)
    I     Atom           X                Y                Z
 ----------------------------------------------------------------
    1      O      -1.6680510254    -1.0702258886     0.8816601391
    2      C      -2.2346745650     0.0333944623     1.0733208259
    3      C      -3.3785362232     0.6474216001     0.1991435501
    4      C      -3.5861161350    -0.1316378638    -1.1616412741
    5      C      -2.6335641986    -1.3664227581    -1.3619941114
    6      O      -1.3655072204    -0.8953090021    -1.8781885086
    7      C      -0.4416254282    -2.0427441327    -2.0495139924
    8      C       0.5653867656    -2.1305008867    -0.8546698203
    9      O       1.6835292376    -1.1884001312    -1.1112911425
   10      C       2.9010470862    -1.6692563988    -0.5334321870
   11      C       4.0090608134    -0.5730465469    -0.7244351317
   12      C       3.5205962321     0.9101435898    -0.4382779440
   13      C       2.0023069586     1.0045190306    -0.0506061960
   14      O       1.4938059050     0.6626203559     1.0416349479
   15      O      -1.9317055683     0.9273090058     2.1303970041
   16      O       1.3145371396     1.6423246236    -1.1246611218
   17      O       3.0357939805    -2.7884652706     0.0054478514
   18      C      -0.1508961688     1.6516283893    -0.8942365407
   19      C       5.1399315136    -0.7414694014     0.3712602471
   20      C       6.4035125547     0.0939778415    -0.0716929588
   21      C       5.9162723795     1.5612128602     0.2251216312
   22      C       4.4623746129     1.2931482021     0.7830995054
   23      O       4.6035688528     0.0194222718     1.5243271427
   24      H       4.4131384594    -0.6619486381    -1.7501054686
   25      H       3.6917842160     1.5598204278    -1.3140713366
   26      H       5.3284383823    -1.7954515408     0.6547574201
   27      H       7.2775617832    -0.1739457007     0.5429531546
   28      H       6.6551747974    -0.0648897224    -1.1324359481
   29      H       6.5392985001     2.0463958307     0.9930822799
   30      H       5.9051320935     2.1965852583    -0.6749023419
   31      H       4.0545667361     2.0812584832     1.4451265421
   32      O      -2.9391363516    -2.5747587964    -1.2806601432
   33      C      -0.7775701905     0.4162272250     2.9187771212
   34      C      -4.8073342697     0.4574937858     0.8756914485
   35      C      -5.8360405778     1.4025962434     0.1379635984
   36      C      -6.0379204297     0.6296939924    -1.2183432531
   37      C      -5.0893565309    -0.6136687025    -1.0052654369
   38      O      -5.2064005472    -0.8992757359     0.4441920964
   39      H      -3.1566403599     1.7161749757     0.0322670896
   40      H      -3.4535185533     0.5455169991    -2.0242703941
   41      H       0.1447771393     0.4361913789     2.2903330390
   42      H      -4.8018667264     0.5342651518     1.9804747636
   43      H      -6.7751106030     1.4666354773     0.7102222547
   44      H      -5.4384381212     2.4201463676    -0.0044481596
   45      H      -7.0817853492     0.3011866225    -1.3442622304
   46      H      -5.7475428573     1.2281164018    -2.0966811080
   47      H      -5.3377898541    -1.5173038457    -1.5947587681
   48      H      -0.9665558281    -0.6128829932     3.2828615019
   49      H      -0.6752218360     1.1036403059     3.7774302641
   50      H      -0.5540280499     2.4837568504    -1.5002123532
   51      H      -0.3862875537     1.8223353561     0.1745437499
   52      H      -0.6044385141     0.6861456375    -1.2334868890
   53      H       0.0298063273    -1.8376625120     0.0798264317
   54      H       0.9688668576    -3.1593335621    -0.7411659115
   55      H       0.0996789389    -1.8952633329    -3.0063302616
   56      H      -1.0542392664    -2.9702427035    -2.0856934680
 ----------------------------------------------------------------

    9   -1510.3041540418      2.53E-09 Convergence criterion met
 Total energy in the final basis set = -1510.30415404
 Final energy is   -1510.30415404181
 **  OPTIMIZATION CONVERGED  **

                    Orbital Energies (a.u.)
 --------------------------------------------------------------

 Alpha MOs
 -- Occupied --
-18.941 -18.934 -18.932 -18.928 -18.891 -18.885 -18.884 -18.879
-18.875 -18.866 -10.108 -10.102 -10.101 -10.100 -10.067 -10.064
-10.061 -10.060 -10.058 -10.057 -10.045 -10.043 -10.041 -10.040
-10.038 -10.034 -10.023 -10.022 -10.020 -10.019  -1.019  -1.015
 -1.007  -1.001  -0.973  -0.968  -0.942  -0.941  -0.934  -0.930
 -0.767  -0.762  -0.728  -0.723  -0.712  -0.705  -0.697  -0.657
 -0.654  -0.614  -0.597  -0.579  -0.549  -0.543  -0.539  -0.535
 -0.513  -0.509  -0.487  -0.471  -0.461  -0.458  -0.454  -0.448
 -0.435  -0.431  -0.429  -0.424  -0.412  -0.407  -0.403  -0.400
 -0.396  -0.379  -0.371  -0.365  -0.362  -0.358  -0.355  -0.350
 -0.342  -0.339  -0.337  -0.329  -0.329  -0.328  -0.325  -0.314
 -0.309  -0.307  -0.305  -0.302  -0.297  -0.286  -0.281  -0.277
 -0.269  -0.257  -0.254  -0.244  -0.239  -0.237  -0.233  -0.184
 -0.181  -0.171  -0.164  -0.161  -0.159  -0.154  -0.148  -0.147
 -0.142

          Ground-State Mulliken Net Atomic Charges

     Atom                 Charge (a.u.)
  ----------------------------------------
      1 O                    -0.212902
      2 C                     0.217676
      3 C                    -0.079222
      4 C                    -0.081444
      5 C                     0.219897
      6 O                    -0.178874
      7 C                    -0.053730
      8 C                    -0.061446
      9 O                    -0.174717
     10 C                     0.213573
     11 C                    -0.078216
     12 C                    -0.079549
     13 C                     0.223224
     14 O                    -0.229608
     15 O                    -0.169240
     16 O                    -0.169378
     17 O                    -0.209166
     18 C                    -0.150328
     19 C                     0.023897
     20 C                    -0.144131
     21 C                    -0.143946
     22 C                     0.025307
     23 O                    -0.187648
     24 H                     0.084869
     25 H                     0.085566
     26 H                     0.090741
     27 H                     0.078268
     28 H                     0.072854
     29 H                     0.077772
     30 H                     0.073202
     31 H                     0.083255
     32 O                    -0.210841
     33 C                    -0.147472
     34 C                     0.025824
     35 C                    -0.143503
     36 C                    -0.144288
     37 C                     0.025823
     38 O                    -0.187170
     39 H                     0.086663
     40 H                     0.084948
     41 H                     0.121280
     42 H                     0.086218
     43 H                     0.079195
     44 H                     0.074024
     45 H                     0.078997
     46 H                     0.073362
     47 H                     0.089663
     48 H                     0.086596
     49 H                     0.085401
     50 H                     0.078621
     51 H                     0.083259
     52 H                     0.107085
     53 H                     0.110002
     54 H                     0.096960
     55 H                     0.089109
     56 H                     0.103689
  ----------------------------------------
  Sum of atomic charges =    -0.000000

                    Cartesian Multipole Moments
 -----------------------------------------------------------------
    Charge (ESU x 10^10)
                -0.0000
    Dipole Moment (Debye)
         X       0.1079      Y       3.2975      Z      -2.3473
       Tot       4.0491
    Quadrupole Moments (Debye-Ang)
        XX    -147.6835     XY      -5.7879     YY    -164.9586
        XZ      -2.9882     YZ       3.8141     ZZ    -157.4753

 Total job time:  183.01s(wall), 8733.10s(cpu)
        *  Thank you very much for using Q-Chem.  Have a nice day.  *
