 Q-Chem 5.0, Q-Chem, Inc., Pleasanton, CA (2017)
 Q-Chem 5.0.1 for Intel X86 EM64T Linux

User input:
--------------------------------------------------------------
$molecule
0  1
O -3.94934 -3.66094 2.70899
C -3.26408 -4.56952 2.26188
C -3.36658 -6.02376 2.66595
C -2.54875 -6.47278 3.88799
C -1.8594 -5.38119 4.67624
O -0.58196 -5.21675 4.22177
C 0.21074 -4.37236 5.06312
C -0.65109 -3.26194 5.65502
O 0.13014 -2.46564 6.55972
C -0.4584 -1.32054 6.98575
C 0.38384 -0.56222 7.98388
C 1.71304 -0.02499 7.43353
C 1.84359 -0.00575 5.9238
O 1.57405 0.94271 5.20108
O -2.2043 -4.25738 1.47121
O 2.25378 -1.16546 5.34681
O -1.56458 -0.94183 6.61741
C 2.40916 -1.3416 3.98745
C -0.26575 0.73531 8.50883
C 0.33912 1.10131 9.86335
C 1.72717 1.53447 9.44296
C 1.59276 1.43851 7.91879
O 0.24142 1.74242 7.67339
H 0.53717 -1.25219 8.84425
H 2.62493 -0.50275 7.85464
H -1.37274 0.67748 8.5933
H -0.21345 1.99328 10.23705
H 0.30475 0.30116 10.63372
H 1.87478 2.59123 9.75864
H 2.5592 0.90258 9.82231
H 2.33694 2.10526 7.42885
O -2.16494 -5.36503 5.86293
C -1.8794 -2.97653 1.07661
C -4.79283 -6.39053 3.13787
C -5.03892 -7.88303 2.93382
C -4.14223 -8.46065 4.00508
C -3.67278 -7.17334 4.69615
O -4.74887 -6.28473 4.539
H -3.15857 -6.61999 1.74848
H -1.76779 -7.21085 3.59365
H -1.66364 -2.34571 1.96562
H -5.59053 -5.80545 2.62914
H -6.09921 -8.07547 3.21598
H -4.86032 -8.26722 1.90654
H -4.76733 -9.07667 4.68923
H -3.28222 -9.05882 3.63356
H -3.37956 -7.41248 5.74156
H -2.71413 -2.53253 0.4931
H -0.97428 -3.01181 0.43635
H 2.77207 -2.37077 3.79145
H 3.15697 -0.62193 3.59104
H 1.43633 -1.19834 3.46997
H -0.96372 -2.63789 4.78576
H -1.56039 -3.4234 6.24461
H 1.06421 -3.96233 4.4865
H 0.61482 -4.98448 5.89859
$end

$opt
CONSTRAINT
tors           1           2           3           4     -86.841
tors           3           4           5           6     -93.160
tors           4           5           6           7    -169.659
tors           5           6           7           8     -35.163
tors           6           7           8           9    +176.597
tors           7           8           9          10    +169.800
tors           8           9          10          11    +177.241
tors           9          10          11          12     +64.690
tors          11          12          13          14     +93.099
ENDCONSTRAINT
$end

$rem
JOBTYPE                   OPT
METHOD                    B3LYP
DFT_D                     d3_op
BASIS                     STO-3G
GEOM_OPT_MAX_CYCLES       100
GEOM_OPT_TOL_GRADIENT     300
GEOM_OPT_TOL_DISPLACEMENT 1200
GEOM_OPT_TOL_ENERGY       100
SYMMETRY                  False
THRESH                    12
SCF_CONVERGENCE           8
MAX_SUB_FILE_NUM          128
MEM_STATIC                400
MEM_TOTAL                 4000
$end
--------------------------------------------------------------

   15   -1510.1098323942      8.25E-09 Convergence criterion met
 Total energy in the final basis set = -1510.10983239
   15   -1510.1852405516      2.15E-09 Convergence criterion met
 Total energy in the final basis set = -1510.18524055
   14   -1510.2269065700      9.14E-09 Convergence criterion met
 Total energy in the final basis set = -1510.22690657
   15   -1510.2513463129      2.07E-09 Convergence criterion met
 Total energy in the final basis set = -1510.25134631
   14   -1510.2627590072      3.59E-09 Convergence criterion met
 Total energy in the final basis set = -1510.26275901
   13   -1510.2683418588      6.99E-09 Convergence criterion met
 Total energy in the final basis set = -1510.26834186
   13   -1510.2711302857      3.34E-09 Convergence criterion met
 Total energy in the final basis set = -1510.27113029
   13   -1510.2722108203      3.96E-09 Convergence criterion met
    9   -1510.2737101567      7.55E-09 Convergence criterion met
 Total energy in the final basis set = -1510.27371016
   10   -1510.2737157002      5.90E-09 Convergence criterion met
 Total energy in the final basis set = -1510.27371570
    9   -1510.2737177072      7.39E-09 Convergence criterion met
 Total energy in the final basis set = -1510.27371771
    9   -1510.2737192274      4.66E-09 Convergence criterion met
 Total energy in the final basis set = -1510.27371923
    9   -1510.2737208429      7.76E-09 Convergence criterion met
 Total energy in the final basis set = -1510.27372084
    9   -1510.2737225747      9.98E-09 Convergence criterion met
 Total energy in the final basis set = -1510.27372257

             Standard Nuclear Orientation (Angstroms)
    I     Atom           X                Y                Z
 ----------------------------------------------------------------
    1      O      -3.5090418286     0.3809265725     2.4247937727
    2      C      -3.7778712653     1.0150213642     1.3823526350
    3      C      -4.8172299233     0.6360339885     0.2697763675
    4      C      -4.1920448452    -0.3219383011    -0.8399529035
    5      C      -2.6699451876    -0.6239008187    -0.5880013872
    6      O      -1.9413396738     0.3511338681    -1.3388568274
    7      C      -0.4744449878     0.1429780176    -1.4624225645
    8      C       0.2796203599    -0.4813208248    -0.2339329028
    9      O       1.6862516769    -0.6409264528    -0.6844310630
   10      C       2.5210186183    -0.9815767019     0.4276349863
   11      C       3.9840245320    -1.2117866376    -0.0945355080
   12      C       4.6878325812     0.0793566449    -0.7050569142
   13      C       3.7914421277     1.3652596948    -0.7429709008
   14      O       3.7197474790     2.2672310734     0.1195173464
   15      O      -3.1093162418     2.2179023577     0.9799388691
   16      O       3.1047563061     1.4098584504    -2.0007268098
   17      O       2.1135252384    -1.0875763138     1.6038927951
   18      C       2.2988208700     2.6490967939    -2.0868100412
   19      C       4.9494235277    -1.5328242773     1.1201989785
   20      C       6.2946708221    -2.1352873592     0.5562693913
   21      C       6.9843484578    -0.8456629882    -0.0263561472
   22      C       5.9003380255     0.2547033814     0.3026778219
   23      O       5.3398219300    -0.1863470769     1.6000062244
   24      H       3.9607651976    -2.0275973629    -0.8405009386
   25      H       5.0310350735    -0.1247697577    -1.7348283076
   26      H       4.4642861654    -2.1056558292     1.9342254762
   27      H       6.8892836157    -2.5793193318     1.3701776176
   28      H       6.1152963991    -2.9053845887    -0.2109796257
   29      H       7.9280601314    -0.6224219190     0.4962855114
   30      H       7.1872525846    -0.9210429787    -1.1066177524
   31      H       6.2802737465     1.2917488915     0.3797131027
   32      O      -2.2022721973    -1.5712429433     0.0805056085
   33      C      -2.0475330890     2.5540330259     1.9566601709
   34      C      -5.9606097766    -0.2956098910     0.8512311705
   35      C      -7.1326543833    -0.3715171670    -0.2054757708
   36      C      -6.5073188805    -1.3296801202    -1.2863652269
   37      C      -5.0889389515    -1.6172708878    -0.6545403505
   38      O      -5.3567576669    -1.6471247927     0.8010611952
   39      H      -5.2096207731     1.5638201044    -0.1827628872
   40      H      -4.2947457987     0.1223697119    -1.8453815170
   41      H      -1.2918249502     1.7450691312     2.0307776987
   42      H      -6.2669619224    -0.0501828363     1.8863783849
   43      H      -8.0339993796    -0.8109195817     0.2506880536
   44      H      -7.3900882364     0.6192620449    -0.6127417978
   45      H      -7.0816758254    -2.2653169876    -1.3769378379
   46      H      -6.4349394244    -0.8621742669    -2.2814469187
   47      H      -4.6041870543    -2.5590441042    -0.9766224423
   48      H      -2.4634928733     2.7371077680     2.9683254038
   49      H      -1.5673229796     3.4762979434     1.5813771269
   50      H       1.7343010206     2.5827604871    -3.0350730913
   51      H       2.9419888579     3.5530299208    -2.1033945909
   52      H       1.5929558184     2.7412956113    -1.2364068603
   53      H       0.2201840591     0.1876574118     0.6511722468
   54      H      -0.1882211642    -1.4509066383     0.0366911011
   55      H      -0.0607387119     1.1463313437    -1.6864729537
   56      H      -0.2868270746    -0.5079426047    -2.3462033854
 ----------------------------------------------------------------

    9   -1510.2737229142      6.89E-09 Convergence criterion met
 Total energy in the final basis set = -1510.27372291
 Final energy is   -1510.27372291416
 **  OPTIMIZATION CONVERGED  **

                    Orbital Energies (a.u.)
 --------------------------------------------------------------

 Alpha MOs
 -- Occupied --
-18.940 -18.935 -18.933 -18.933 -18.887 -18.886 -18.885 -18.877
-18.876 -18.875 -10.108 -10.099 -10.098 -10.097 -10.079 -10.067
-10.066 -10.063 -10.060 -10.059 -10.058 -10.056 -10.039 -10.038
-10.038 -10.037 -10.021 -10.020 -10.019 -10.018  -1.017  -1.013
 -1.009  -1.008  -0.969  -0.968  -0.946  -0.937  -0.935  -0.934
 -0.765  -0.762  -0.729  -0.723  -0.713  -0.705  -0.698  -0.666
 -0.662  -0.619  -0.597  -0.587  -0.548  -0.545  -0.538  -0.537
 -0.513  -0.509  -0.480  -0.469  -0.463  -0.457  -0.455  -0.451
 -0.444  -0.430  -0.428  -0.415  -0.413  -0.412  -0.410  -0.399
 -0.389  -0.380  -0.379  -0.368  -0.363  -0.360  -0.356  -0.351
 -0.349  -0.341  -0.338  -0.332  -0.331  -0.330  -0.328  -0.311
 -0.310  -0.307  -0.304  -0.299  -0.293  -0.283  -0.281  -0.277
 -0.274  -0.257  -0.256  -0.252  -0.247  -0.234  -0.232  -0.184
 -0.182  -0.176  -0.175  -0.158  -0.157  -0.149  -0.148  -0.143
 -0.142

          Ground-State Mulliken Net Atomic Charges

     Atom                 Charge (a.u.)
  ----------------------------------------
      1 O                    -0.204928
      2 C                     0.203441
      3 C                    -0.078198
      4 C                    -0.077546
      5 C                     0.209546
      6 O                    -0.171040
      7 C                    -0.049238
      8 C                    -0.059641
      9 O                    -0.174976
     10 C                     0.207875
     11 C                    -0.077590
     12 C                    -0.078905
     13 C                     0.207016
     14 O                    -0.211575
     15 O                    -0.170666
     16 O                    -0.166922
     17 O                    -0.206030
     18 C                    -0.128863
     19 C                     0.024338
     20 C                    -0.144377
     21 C                    -0.143964
     22 C                     0.025307
     23 O                    -0.186399
     24 H                     0.085128
     25 H                     0.085444
     26 H                     0.090710
     27 H                     0.078523
     28 H                     0.072752
     29 H                     0.078137
     30 H                     0.072581
     31 H                     0.086129
     32 O                    -0.203884
     33 C                    -0.129083
     34 C                     0.025888
     35 C                    -0.144162
     36 C                    -0.143834
     37 C                     0.025683
     38 O                    -0.183242
     39 H                     0.085995
     40 H                     0.086463
     41 H                     0.088321
     42 H                     0.086717
     43 H                     0.078482
     44 H                     0.073183
     45 H                     0.078511
     46 H                     0.072956
     47 H                     0.086133
     48 H                     0.090291
     49 H                     0.089995
     50 H                     0.089105
     51 H                     0.088281
     52 H                     0.087321
     53 H                     0.086675
     54 H                     0.111217
     55 H                     0.090260
     56 H                     0.086662
  ----------------------------------------
  Sum of atomic charges =    -0.000000

                    Cartesian Multipole Moments
 -----------------------------------------------------------------
    Charge (ESU x 10^10)
                 0.0000
    Dipole Moment (Debye)
         X      -0.3268      Y       1.1247      Z      -4.6199
       Tot       4.7661
    Quadrupole Moments (Debye-Ang)
        XX    -140.8859     XY     -11.4693     YY    -157.6244
        XZ      -1.0636     YZ       3.7572     ZZ    -165.3607

 Total job time:  72.62s(wall), 3451.03s(cpu)
        *  Thank you very much for using Q-Chem.  Have a nice day.  *
