 Q-Chem 5.0, Q-Chem, Inc., Pleasanton, CA (2017)
 Q-Chem 5.0.1 for Intel X86 EM64T Linux

User input:
--------------------------------------------------------------
$molecule
0  1
O -3.5090418286 0.3809265725 2.4247937727
C -3.7778712653 1.0150213642 1.382352635
C -4.8172299233 0.6360339885 0.2697763675
C -4.1920448452 -0.3219383011 -0.8399529035
C -2.6699451876 -0.6239008187 -0.5880013872
O -1.9413396738 0.3511338681 -1.3388568274
C -0.4744449878 0.1429780176 -1.4624225645
C 0.2796203599 -0.4813208248 -0.2339329028
O 1.6862516769 -0.6409264528 -0.684431063
C 2.5210186183 -0.9815767019 0.4276349863
C 3.984024532 -1.2117866376 -0.094535508
C 4.6878325812 0.0793566449 -0.7050569142
C 3.7914421277 1.3652596948 -0.7429709008
O 3.719747479 2.2672310734 0.1195173464
O -3.1093162418 2.2179023577 0.9799388691
O 3.1047563061 1.4098584504 -2.0007268098
O 2.1135252384 -1.0875763138 1.6038927951
C 2.29882087 2.6490967939 -2.0868100412
C 4.9494235277 -1.5328242773 1.1201989785
C 6.2946708221 -2.1352873592 0.5562693913
C 6.9843484578 -0.8456629882 -0.0263561472
C 5.9003380255 0.2547033814 0.3026778219
O 5.33982193 -0.1863470769 1.6000062244
H 3.9607651976 -2.0275973629 -0.8405009386
H 5.0310350735 -0.1247697577 -1.7348283076
H 4.4642861654 -2.1056558292 1.9342254762
H 6.8892836157 -2.5793193318 1.3701776176
H 6.1152963991 -2.9053845887 -0.2109796257
H 7.9280601314 -0.622421919 0.4962855114
H 7.1872525846 -0.9210429787 -1.1066177524
H 6.2802737465 1.2917488915 0.3797131027
O -2.2022721973 -1.5712429433 0.0805056085
C -2.047533089 2.5540330259 1.9566601709
C -5.9606097766 -0.295609891 0.8512311705
C -7.1326543833 -0.371517167 -0.2054757708
C -6.5073188805 -1.3296801202 -1.2863652269
C -5.0889389515 -1.6172708878 -0.6545403505
O -5.3567576669 -1.6471247927 0.8010611952
H -5.2096207731 1.5638201044 -0.1827628872
H -4.2947457987 0.1223697119 -1.845381517
H -1.2918249502 1.7450691312 2.0307776987
H -6.2669619224 -0.0501828363 1.8863783849
H -8.0339993796 -0.8109195817 0.2506880536
H -7.3900882364 0.6192620449 -0.6127417978
H -7.0816758254 -2.2653169876 -1.3769378379
H -6.4349394244 -0.8621742669 -2.2814469187
H -4.6041870543 -2.5590441042 -0.9766224423
H -2.4634928733 2.737107768 2.9683254038
H -1.5673229796 3.4762979434 1.5813771269
H 1.7343010206 2.5827604871 -3.0350730913
H 2.9419888579 3.5530299208 -2.1033945909
H 1.5929558184 2.7412956113 -1.2364068603
H 0.2201840591 0.1876574118 0.6511722468
H -0.1882211642 -1.4509066383 0.0366911011
H -0.0607387119 1.1463313437 -1.6864729537
H -0.2868270746 -0.5079426047 -2.3462033854
$end

$rem
JOBTYPE                   OPT
METHOD                    B3LYP
DFT_D                     d3_op
BASIS                     STO-3G
GEOM_OPT_MAX_CYCLES       100
GEOM_OPT_TOL_GRADIENT     300
GEOM_OPT_TOL_DISPLACEMENT 1200
GEOM_OPT_TOL_ENERGY       100
SYMMETRY                  False
THRESH                    12
SCF_CONVERGENCE           8
MAX_SUB_FILE_NUM          128
MEM_STATIC                400
MEM_TOTAL                 4000
$end
--------------------------------------------------------------

   16   -1510.2735724837      4.50E-09 Convergence criterion met
 Total energy in the final basis set = -1510.27357248
   14   -1510.2762224775      5.67E-09 Convergence criterion met
 Total energy in the final basis set = -1510.27622248
   14   -1510.2781268736      5.20E-09 Convergence criterion met
 Total energy in the final basis set = -1510.27812687
   13   -1510.2795536970      9.42E-09 Convergence criterion met
 Total energy in the final basis set = -1510.27955370
   13   -1510.2808753301      6.20E-09 Convergence criterion met
 Total energy in the final basis set = -1510.28087533
   14   -1510.2825087708      4.68E-09 Convergence criterion met
 Total energy in the final basis set = -1510.28250877
   14   -1510.2838601787      4.41E-09 Convergence criterion met
 Total energy in the final basis set = -1510.28386018
   14   -1510.2845995506      5.94E-09 Convergence criterion met
   12   -1510.2917953567      3.21E-09 Convergence criterion met
 Total energy in the final basis set = -1510.29179536
   12   -1510.2918050196      2.62E-09 Convergence criterion met
 Total energy in the final basis set = -1510.29180502
   12   -1510.2918070997      3.36E-09 Convergence criterion met
 Total energy in the final basis set = -1510.29180710
   10   -1510.2918061258      7.75E-09 Convergence criterion met
 Total energy in the final basis set = -1510.29180613
   10   -1510.2918099788      7.64E-09 Convergence criterion met
 Total energy in the final basis set = -1510.29180998
   10   -1510.2918137154      5.53E-09 Convergence criterion met
 Total energy in the final basis set = -1510.29181372

             Standard Nuclear Orientation (Angstroms)
    I     Atom           X                Y                Z
 ----------------------------------------------------------------
    1      O      -2.0971751488    -1.1883141358     0.5661978724
    2      C      -2.7562768399    -0.2140958016     1.0051777066
    3      C      -4.0826453816     0.3545978643     0.3956699155
    4      C      -4.1802936078     0.1578797253    -1.1775998411
    5      C      -2.8705212166    -0.4136452434    -1.8282578399
    6      O      -1.9091056527     0.6565635308    -1.8355713270
    7      C      -0.5500528069     0.1398233986    -2.1341590547
    8      C       0.1700045007     0.0382204370    -0.7495024472
    9      O       1.5589735278    -0.4470221543    -0.9264550440
   10      C       2.1563915548    -0.6139647659     0.3625593347
   11      C       3.6785505639    -0.9278472685     0.1527471128
   12      C       4.4344074366     0.2452954114    -0.6066101462
   13      C       3.4822612169     1.4287263582    -0.9945396297
   14      O       2.7581070265     2.1086777195    -0.2346073802
   15      O      -2.4034966883     0.5337882640     2.1615262740
   16      O       3.5750854797     1.6354985912    -2.4094402683
   17      O       1.5438037258    -0.5053602493     1.4484689412
   18      C       2.6697300666     2.7337071951    -2.8188013555
   19      C       4.4500206324    -0.9488932301     1.5334653867
   20      C       5.8746580166    -1.5890353599     1.3075470278
   21      C       6.6212644951    -0.4171304445     0.5676532114
   22      C       5.4843725172     0.6785143717     0.5066079341
   23      O       4.7444402361     0.4843205910     1.7732663783
   24      H       3.7718121243    -1.8805641554    -0.4001155879
   25      H       4.9292272313    -0.1162564281    -1.5246141715
   26      H       3.8581889137    -1.3656946953     2.3713657596
   27      H       6.3490306462    -1.8227812010     2.2738032390
   28      H       5.8259982911    -2.5106292310     0.7057852476
   29      H       7.4774395279    -0.0496946122     1.1553162947
   30      H       6.9769333361    -0.7034605437    -0.4351014167
   31      H       5.8393041556     1.7239437749     0.4219813902
   32      O      -2.6829635400    -1.5419285177    -2.3285636527
   33      C      -1.2023561247    -0.0496852583     2.8180641777
   34      C      -5.3267565653    -0.5211997466     0.8681683817
   35      C      -6.6571163667     0.2381132042     0.4777372300
   36      C      -6.7282347851    -0.0397318741    -1.0701131416
   37      C      -5.3946253883    -0.8540927089    -1.2889020719
   38      O      -5.2885745105    -1.6737233827    -0.0582508622
   39      H      -4.1886944851     1.4127925543     0.6929552420
   40      H      -4.4091902270     1.1221161538    -1.6662420452
   41      H      -0.3069109422    -0.0818726567     2.1544124765
   42      H      -5.2722072784    -0.8632504169     1.9201510559
   43      H      -7.5181665883    -0.1985518908     1.0083542384
   44      H      -6.6035223174     1.3124636248     0.7159900231
   45      H      -7.6041682684    -0.6554513486    -1.3294990326
   46      H      -6.7544037257     0.8843593049    -1.6692215934
   47      H      -5.3623446778    -1.5018678566    -2.1861972326
   48      H      -1.4130918142    -1.0777703313     3.1757686757
   49      H      -0.9965954982     0.6036657842     3.6852946376
   50      H       2.7276728502     2.7841950964    -3.9216338789
   51      H       2.9842141673     3.7058862737    -2.3868283580
   52      H       1.6235932796     2.5354727300    -2.5087759496
   53      H       0.1851548649     1.0418177012    -0.2699813361
   54      H      -0.4275831511    -0.6479139746    -0.1025357582
   55      H      -0.0481292276     0.8632743591    -2.8081295068
   56      H      -0.6211448213    -0.8543376121    -2.6247120895
 ----------------------------------------------------------------

   10   -1510.2918143706      5.26E-09 Convergence criterion met
 Total energy in the final basis set = -1510.29181437
 Final energy is   -1510.29181437063
 **  OPTIMIZATION CONVERGED  **

                    Orbital Energies (a.u.)
 --------------------------------------------------------------

 Alpha MOs
 -- Occupied --
-18.939 -18.935 -18.934 -18.924 -18.888 -18.887 -18.882 -18.878
-18.875 -18.870 -10.103 -10.103 -10.098 -10.098 -10.066 -10.065
-10.062 -10.061 -10.058 -10.058 -10.055 -10.049 -10.039 -10.039
-10.037 -10.036 -10.021 -10.021 -10.020 -10.020  -1.017  -1.014
 -1.007  -1.005  -0.970  -0.970  -0.940  -0.937  -0.934  -0.933
 -0.764  -0.763  -0.727  -0.723  -0.710  -0.706  -0.694  -0.664
 -0.657  -0.612  -0.596  -0.579  -0.547  -0.544  -0.538  -0.537
 -0.513  -0.508  -0.480  -0.473  -0.462  -0.457  -0.453  -0.452
 -0.436  -0.431  -0.428  -0.416  -0.412  -0.409  -0.406  -0.399
 -0.391  -0.381  -0.372  -0.368  -0.358  -0.357  -0.355  -0.349
 -0.347  -0.337  -0.333  -0.332  -0.331  -0.328  -0.326  -0.310
 -0.310  -0.306  -0.304  -0.298  -0.293  -0.286  -0.281  -0.276
 -0.269  -0.259  -0.254  -0.246  -0.244  -0.234  -0.234  -0.184
 -0.177  -0.172  -0.172  -0.159  -0.157  -0.151  -0.149  -0.144
 -0.144

          Ground-State Mulliken Net Atomic Charges

     Atom                 Charge (a.u.)
  ----------------------------------------
      1 O                    -0.216187
      2 C                     0.214422
      3 C                    -0.077753
      4 C                    -0.079364
      5 C                     0.215269
      6 O                    -0.180962
      7 C                    -0.052731
      8 C                    -0.064014
      9 O                    -0.174984
     10 C                     0.219580
     11 C                    -0.078074
     12 C                    -0.079127
     13 C                     0.209889
     14 O                    -0.217706
     15 O                    -0.166418
     16 O                    -0.168489
     17 O                    -0.209876
     18 C                    -0.128448
     19 C                     0.024685
     20 C                    -0.144148
     21 C                    -0.143679
     22 C                     0.025572
     23 O                    -0.186429
     24 H                     0.086729
     25 H                     0.086969
     26 H                     0.089916
     27 H                     0.078476
     28 H                     0.073682
     29 H                     0.078193
     30 H                     0.073863
     31 H                     0.083032
     32 O                    -0.206556
     33 C                    -0.140457
     34 C                     0.025676
     35 C                    -0.143895
     36 C                    -0.143622
     37 C                     0.024867
     38 O                    -0.186706
     39 H                     0.088032
     40 H                     0.085163
     41 H                     0.112627
     42 H                     0.083394
     43 H                     0.078501
     44 H                     0.074179
     45 H                     0.078382
     46 H                     0.073300
     47 H                     0.089732
     48 H                     0.084628
     49 H                     0.089022
     50 H                     0.090064
     51 H                     0.088189
     52 H                     0.087644
     53 H                     0.084725
     54 H                     0.107258
     55 H                     0.082568
     56 H                     0.101397
  ----------------------------------------
  Sum of atomic charges =     0.000000

                    Cartesian Multipole Moments
 -----------------------------------------------------------------
    Charge (ESU x 10^10)
                -0.0000
    Dipole Moment (Debye)
         X       0.5126      Y       1.4448      Z      -1.1261
       Tot       1.9022
    Quadrupole Moments (Debye-Ang)
        XX    -137.2299     XY     -13.2538     YY    -163.3383
        XZ      -5.3803     YZ      -8.7407     ZZ    -158.4231

 Total job time:  108.68s(wall), 5177.44s(cpu)
        *  Thank you very much for using Q-Chem.  Have a nice day.  *
