 Q-Chem 5.0, Q-Chem, Inc., Pleasanton, CA (2017)
 Q-Chem 5.0.1 for Intel X86 EM64T Linux

User input:
--------------------------------------------------------------
$molecule
0  1
O -3.4196739931 1.978527943 1.1776133802
C -3.7225840662 1.7233171235 -0.0077594317
C -4.6144640157 0.5483867038 -0.5381589246
C -3.8376281365 -0.8370932594 -0.6257894939
C -2.3822442089 -0.7870471133 -0.0231179784
O -1.655643713 0.1741743468 -0.793173705
C -0.1735205576 0.0981564454 -0.7262466373
C 0.4837160011 -0.260092492 0.6556813236
O 1.9406494019 -0.3443469059 0.3980990787
C 2.6877035287 0.2389001302 1.4691827759
C 4.2336124508 0.0977224764 1.1958315263
C 4.6141555128 -0.7024709627 -0.1057505186
C 3.733312915 -1.9413204384 -0.490210816
O 3.7154111284 -2.5110239865 -1.6041594726
O -3.314925521 2.5156221482 -1.1304793537
O 3.2096273983 -2.5290335615 0.7123025811
O 2.1695087049 0.8106128523 2.4533213108
C 2.4535821152 -3.7612516871 0.3954455754
C 4.6615269311 1.5570765867 0.7121312722
C 6.2061743619 1.6238944457 0.3799119363
C 6.2487047049 0.9824060545 -1.0581470426
C 4.7649105038 0.4641305846 -1.1776872766
O 3.9956571067 1.6004983194 -0.616078698
H 4.7525926991 -0.2537696469 2.1041124289
H 5.6183043732 -1.1402076231 0.0601356479
H 4.2842953998 2.3703905093 1.3624569819
H 6.5565012294 2.668030762 0.3729788615
H 6.8039800359 1.0573939594 1.1120952672
H 6.4507680007 1.7433598218 -1.8291776624
H 6.9926309366 0.174950624 -1.1495538962
H 4.4149427981 0.2099329598 -2.1970503472
O -1.9401788555 -1.5182801233 0.8884438104
C -2.4032248716 3.5915077611 -0.6793457251
C -5.7847336019 0.1667174464 0.4650371899
C -6.8584361079 -0.6701916689 -0.3361950586
C -6.1076068419 -2.0443658911 -0.5001337992
C -4.7623224841 -1.7542655886 0.2733862586
O -5.1693133943 -0.8364919908 1.3634580015
H -5.0048072983 0.8374378345 -1.5298286727
H -3.7667483845 -1.1893168442 -1.6712039423
H -1.4693313074 3.1749195952 -0.2494963389
H -6.1829459869 1.0173025105 1.0512194331
H -7.7792655788 -0.7824018218 0.2582977694
H -7.114770183 -0.2054796535 -1.3015827753
H -6.6594665425 -2.8676493374 -0.0194716877
H -5.9301639675 -2.3076097257 -1.5553223433
H -4.2427119055 -2.6387254695 0.6903398298
H -2.8805955202 4.2415134554 0.0820331679
H -2.1623603396 4.1870339871 -1.579040293
H 1.3664247964 -3.5698848647 0.5010079029
H 2.757035084 -4.546190451 1.1142660143
H 2.6766883614 -4.078825614 -0.6433849795
H 0.2832832815 0.512616921 1.4281310933
H 0.0950233792 -1.2343678792 1.0170148973
H 0.1815656454 1.094878365 -1.061238779
H 0.169018323 -0.6538461563 -1.4732865643
$end

$rem
JOBTYPE                   OPT
METHOD                    B3LYP
DFT_D                     d3_op
BASIS                     STO-3G
GEOM_OPT_MAX_CYCLES       100
GEOM_OPT_TOL_GRADIENT     300
GEOM_OPT_TOL_DISPLACEMENT 1200
GEOM_OPT_TOL_ENERGY       100
SYMMETRY                  False
THRESH                    12
SCF_CONVERGENCE           8
MAX_SUB_FILE_NUM          128
MEM_STATIC                400
MEM_TOTAL                 4000
$end
--------------------------------------------------------------

   16   -1510.2660916681      5.83E-09 Convergence criterion met
 Total energy in the final basis set = -1510.26609167
   14   -1510.2710835733      9.56E-09 Convergence criterion met
 Total energy in the final basis set = -1510.27108357
   14   -1510.2752203631      2.75E-09 Convergence criterion met
 Total energy in the final basis set = -1510.27522036
   14   -1510.2790466167      5.57E-09 Convergence criterion met
 Total energy in the final basis set = -1510.27904662
   14   -1510.2817067681      8.30E-09 Convergence criterion met
 Total energy in the final basis set = -1510.28170677
   13   -1510.2837859032      9.28E-09 Convergence criterion met
 Total energy in the final basis set = -1510.28378590
   13   -1510.2854087550      7.11E-09 Convergence criterion met
 Total energy in the final basis set = -1510.28540875
   14   -1510.2865805324      4.44E-09 Convergence criterion met
   13   -1510.3008682301      4.31E-09 Convergence criterion met
 Total energy in the final basis set = -1510.30086823
   13   -1510.3009083850      3.42E-09 Convergence criterion met
 Total energy in the final basis set = -1510.30090839
   12   -1510.3010404459      4.68E-09 Convergence criterion met
 Total energy in the final basis set = -1510.30104045
   12   -1510.3010678955      3.06E-09 Convergence criterion met
 Total energy in the final basis set = -1510.30106790
   11   -1510.3010770149      8.33E-09 Convergence criterion met
 Total energy in the final basis set = -1510.30107701
   11   -1510.3010804518      8.65E-09 Convergence criterion met
 Total energy in the final basis set = -1510.30108045

             Standard Nuclear Orientation (Angstroms)
    I     Atom           X                Y                Z
 ----------------------------------------------------------------
    1      O      -1.4969699036    -0.6897167196     0.6430332314
    2      C      -2.3348071000     0.2256688726     0.8413693520
    3      C      -3.7410664531     0.3664046345     0.1661995045
    4      C      -3.7889668448    -0.1282857224    -1.3400311049
    5      C      -2.4140557084    -0.6143270887    -1.9230011016
    6      O      -1.5549352666     0.5244633848    -2.0669870264
    7      C      -0.2281388623     0.0932199742    -2.5756341609
    8      C       0.5463806634    -0.7752882634    -1.5020225126
    9      O       1.9121633543    -0.2788387746    -1.2109183679
   10      C       1.8698386092     0.8686487335    -0.3626358115
   11      C       3.3391993630     1.2458855560     0.0241924320
   12      C       4.0880919343     0.0821734014     0.8033520880
   13      C       3.1897109121    -1.1841273011     1.0409480667
   14      O       3.4594902652    -2.3725697412     0.7681138887
   15      O      -2.1749058341     1.2890461275     1.7655386202
   16      O       1.9741695152    -0.7378918811     1.6531288066
   17      O       0.8185893160     1.4670405607    -0.0357811446
   18      C       1.0329426041    -1.8641286522     1.8733242759
   19      C       4.2739648386     1.3830766202    -1.2554521205
   20      C       5.6121567879     2.1004432673    -0.8158329829
   21      C       6.3480630108     0.9335004969    -0.0570361142
   22      C       5.2865258582    -0.2281523428    -0.1845419085
   23      O       4.6951847325    -0.0087026565    -1.5252024857
   24      H       3.3085805246     2.1782473631     0.6140827671
   25      H       4.4502755210     0.4402419502     1.7848867458
   26      H       3.7754917224     1.8165755782    -2.1442127334
   27      H       6.1805896336     2.4289295204    -1.7003235625
   28      H       5.4213882346     2.9740552192    -0.1722305759
   29      H       7.2871953252     0.6547636162    -0.5607827648
   30      H       6.5701531886     1.1821147861     0.9930642130
   31      H       5.6803271908    -1.2598184446    -0.1005722484
   32      O      -2.1092392805    -1.7749710776    -2.2713606619
   33      C      -0.8216345761     1.2582255192     2.3803690142
   34      C      -4.7893720169    -0.6337823860     0.8308535395
   35      C      -6.2422716998    -0.2085114082     0.3752122276
   36      C      -6.2685711790    -0.7454222094    -1.1043987151
   37      C      -4.8118335148    -1.3346576874    -1.2361519332
   38      O      -4.5460028821    -1.9002495989     0.1082939287
   39      H      -4.0654896702     1.4169293507     0.2646400388
   40      H      -4.1715647422     0.6782521876    -1.9917076617
   41      H      -0.0407615330     1.3411343342     1.5866367871
   42      H      -4.6607810843    -0.7746926250     1.9218612888
   43      H      -7.0021546193    -0.7038028645     1.0002794857
   44      H      -6.3907719902     0.8815129190     0.4349208072
   45      H      -7.0191417569    -1.5419278071    -1.2303684402
   46      H      -6.4669472009     0.0471056432    -1.8435405762
   47      H      -4.6682414880    -2.1101120957    -2.0132286147
   48      H      -0.6672634444     0.3329587533     2.9699207962
   49      H      -0.7822151301     2.1342694365     3.0525097626
   50      H       0.0293256436    -1.5271629795     1.5316739167
   51      H       1.0043519656    -2.1127073719     2.9531640586
   52      H       1.3672464540    -2.7537094347     1.3045300474
   53      H      -0.0773365605    -0.7931157062    -0.5779213177
   54      H       0.6893191179    -1.8080790702    -1.8731145363
   55      H       0.3236450063     1.0318027303    -2.7838324444
   56      H      -0.3415010292    -0.4766879969    -3.5223622255
 ----------------------------------------------------------------

    9   -1510.3010803408      9.91E-09 Convergence criterion met
 Total energy in the final basis set = -1510.30108034
 Final energy is   -1510.30108034083
 **  OPTIMIZATION CONVERGED  **

                    Orbital Energies (a.u.)
 --------------------------------------------------------------

 Alpha MOs
 -- Occupied --
-18.943 -18.932 -18.927 -18.926 -18.889 -18.887 -18.883 -18.875
-18.873 -18.871 -10.110 -10.102 -10.096 -10.096 -10.066 -10.063
-10.061 -10.058 -10.056 -10.053 -10.049 -10.040 -10.040 -10.037
-10.037 -10.036 -10.022 -10.020 -10.020 -10.019  -1.018  -1.014
 -1.006  -1.001  -0.971  -0.969  -0.941  -0.936  -0.931  -0.931
 -0.764  -0.762  -0.726  -0.723  -0.710  -0.705  -0.690  -0.660
 -0.650  -0.615  -0.596  -0.582  -0.545  -0.545  -0.537  -0.536
 -0.514  -0.509  -0.478  -0.470  -0.463  -0.460  -0.454  -0.438
 -0.435  -0.430  -0.430  -0.419  -0.413  -0.406  -0.404  -0.398
 -0.383  -0.375  -0.368  -0.365  -0.363  -0.360  -0.353  -0.348
 -0.342  -0.339  -0.332  -0.331  -0.329  -0.325  -0.321  -0.311
 -0.308  -0.305  -0.304  -0.303  -0.291  -0.287  -0.281  -0.279
 -0.270  -0.258  -0.249  -0.243  -0.236  -0.235  -0.233  -0.191
 -0.178  -0.171  -0.161  -0.159  -0.156  -0.150  -0.148  -0.145
 -0.142

          Ground-State Mulliken Net Atomic Charges

     Atom                 Charge (a.u.)
  ----------------------------------------
      1 O                    -0.221176
      2 C                     0.225419
      3 C                    -0.077783
      4 C                    -0.079507
      5 C                     0.211319
      6 O                    -0.173118
      7 C                    -0.049959
      8 C                    -0.064198
      9 O                    -0.168786
     10 C                     0.218920
     11 C                    -0.079210
     12 C                    -0.077766
     13 C                     0.214480
     14 O                    -0.210873
     15 O                    -0.163652
     16 O                    -0.179349
     17 O                    -0.222222
     18 C                    -0.149101
     19 C                     0.026283
     20 C                    -0.143989
     21 C                    -0.143976
     22 C                     0.024665
     23 O                    -0.184947
     24 H                     0.083698
     25 H                     0.083807
     26 H                     0.081577
     27 H                     0.077891
     28 H                     0.073117
     29 H                     0.078220
     30 H                     0.072836
     31 H                     0.090964
     32 O                    -0.212093
     33 C                    -0.142414
     34 C                     0.025662
     35 C                    -0.143704
     36 C                    -0.143965
     37 C                     0.024869
     38 O                    -0.187185
     39 H                     0.088945
     40 H                     0.085090
     41 H                     0.117231
     42 H                     0.082668
     43 H                     0.078469
     44 H                     0.074265
     45 H                     0.078563
     46 H                     0.073582
     47 H                     0.090690
     48 H                     0.082777
     49 H                     0.086169
     50 H                     0.108875
     51 H                     0.076498
     52 H                     0.096194
     53 H                     0.113123
     54 H                     0.094664
     55 H                     0.089462
     56 H                     0.087982
  ----------------------------------------
  Sum of atomic charges =    -0.000000

                    Cartesian Multipole Moments
 -----------------------------------------------------------------
    Charge (ESU x 10^10)
                -0.0000
    Dipole Moment (Debye)
         X      -0.6878      Y       3.3387      Z       1.0485
       Tot       3.5664
    Quadrupole Moments (Debye-Ang)
        XX    -141.9284     XY       5.0392     YY    -168.1114
        XZ       5.8531     YZ      -3.1282     ZZ    -154.0456

 Total job time:  192.12s(wall), 9172.72s(cpu)
        *  Thank you very much for using Q-Chem.  Have a nice day.  *
