 Q-Chem 5.0, Q-Chem, Inc., Pleasanton, CA (2017)
 Q-Chem 5.0.1 for Intel X86 EM64T Linux

User input:
--------------------------------------------------------------
$molecule
0  1
O -3.94934 -3.66094 2.70899
C -3.26408 -4.56952 2.26188
C -3.36658 -6.02376 2.66595
C -2.6851 -6.43743 3.9806
C -2.12963 -5.31845 4.83349
O -1.16541 -4.64247 4.14157
C -0.2988 -3.87697 4.98552
C -1.0932 -3.25669 6.1302
O -0.20729 -2.55609 7.01745
C -0.67175 -1.37329 7.49117
C 0.28565 -0.70688 8.4503
C 1.5495 -1.51793 8.77148
C 1.84446 -2.67768 7.84159
O 2.91374 -3.26425 7.75716
O -2.42758 -4.30075 1.22482
O 1.03991 -3.68539 8.38041
O -1.73244 -0.85425 7.16606
C 1.08302 -5.05805 8.15579
C 0.88116 0.598 7.90292
C 1.35781 1.46751 9.06514
C 2.57126 0.68489 9.52115
C 2.59801 -0.42455 8.46249
O 2.08724 0.19618 7.3074
H -0.29972 -0.50254 9.37493
H 1.63962 -1.84783 9.8325
H 0.17757 1.16563 7.25567
H 1.69978 2.43651 8.63673
H 0.59651 1.66178 9.85115
H 3.46627 1.33801 9.42113
H 2.51423 0.27483 10.55258
H 3.62841 -0.8347 8.37425
O -3.00493 -4.74119 5.47126
C -2.21822 -3.04207 0.70156
C -4.81129 -6.48458 2.93442
C -4.91911 -7.99823 2.75031
C -4.17754 -8.48765 3.97831
C -3.86818 -7.15501 4.66795
O -4.96619 -6.34085 4.32595
H -2.94302 -6.61243 1.81981
H -1.83426 -7.13179 3.79899
H -1.80768 -2.36773 1.4836
H -5.55995 -5.96315 2.29859
H -5.99411 -8.26935 2.85544
H -4.53746 -8.3822 1.77995
H -4.88238 -9.0845 4.59879
H -3.25778 -9.07735 3.77583
H -3.69004 -7.31084 5.7548
H -3.17044 -2.6264 0.30837
H -1.48739 -3.11074 -0.13004
H 0.08737 -5.41362 7.82811
H 1.33821 -5.57226 9.10188
H 1.82353 -5.33934 7.38003
H -1.90623 -2.62149 5.70954
H -1.478 -4.02798 6.8251
H 0.18968 -3.08588 4.37877
H 0.49127 -4.53973 5.39453
$end

$opt
CONSTRAINT
tors           1           2           3           4     -79.774
tors           3           4           5           6     -61.252
tors           4           5           6           7    -160.811
tors           5           6           7           8     -37.771
tors           6           7           8           9    +176.597
tors           7           8           9          10    +139.846
tors           8           9          10          11    +178.222
tors           9          10          11          12      -3.437
tors          11          12          13          14    +164.334
ENDCONSTRAINT
$end

$rem
JOBTYPE                   OPT
METHOD                    B3LYP
DFT_D                     d3_op
BASIS                     STO-3G
GEOM_OPT_MAX_CYCLES       100
GEOM_OPT_TOL_GRADIENT     300
GEOM_OPT_TOL_DISPLACEMENT 1200
GEOM_OPT_TOL_ENERGY       100
SYMMETRY                  False
THRESH                    12
SCF_CONVERGENCE           8
MAX_SUB_FILE_NUM          128
MEM_STATIC                400
MEM_TOTAL                 4000
$end
--------------------------------------------------------------

   16   -1510.0126676352      7.98E-09 Convergence criterion met
 Total energy in the final basis set = -1510.01266764
   15   -1510.0996833052      7.71E-09 Convergence criterion met
 Total energy in the final basis set = -1510.09968331
   14   -1510.1538943611      4.86E-09 Convergence criterion met
 Total energy in the final basis set = -1510.15389436
   15   -1510.1895113538      1.98E-09 Convergence criterion met
 Total energy in the final basis set = -1510.18951135
   15   -1510.2124256455      2.20E-09 Convergence criterion met
 Total energy in the final basis set = -1510.21242565
    2   -1510.2124256455      1.74E-09 Convergence criterion met
 Total energy in the final basis set = -1510.21242565
   14   -1510.2274793474      4.45E-09 Convergence criterion met
 Total energy in the final basis set = -1510.22747935
   14   -1510.2380887105      2.61E-09 Convergence criterion met
   10   -1510.2660977623      5.89E-09 Convergence criterion met
 Total energy in the final basis set = -1510.26609776
   11   -1510.2661165287      3.96E-09 Convergence criterion met
 Total energy in the final basis set = -1510.26611653
    9   -1510.2661245388      8.10E-09 Convergence criterion met
 Total energy in the final basis set = -1510.26612454
    9   -1510.2661292781      5.89E-09 Convergence criterion met
 Total energy in the final basis set = -1510.26612928
    9   -1510.2661320544      3.87E-09 Convergence criterion met
 Total energy in the final basis set = -1510.26613205
    9   -1510.2661344162      2.99E-09 Convergence criterion met
 Total energy in the final basis set = -1510.26613442

             Standard Nuclear Orientation (Angstroms)
    I     Atom           X                Y                Z
 ----------------------------------------------------------------
    1      O      -3.4196739931     1.9785279430     1.1776133802
    2      C      -3.7225840662     1.7233171235    -0.0077594317
    3      C      -4.6144640157     0.5483867038    -0.5381589246
    4      C      -3.8376281365    -0.8370932594    -0.6257894939
    5      C      -2.3822442089    -0.7870471133    -0.0231179784
    6      O      -1.6556437130     0.1741743468    -0.7931737050
    7      C      -0.1735205576     0.0981564454    -0.7262466373
    8      C       0.4837160011    -0.2600924920     0.6556813236
    9      O       1.9406494019    -0.3443469059     0.3980990787
   10      C       2.6877035287     0.2389001302     1.4691827759
   11      C       4.2336124508     0.0977224764     1.1958315263
   12      C       4.6141555128    -0.7024709627    -0.1057505186
   13      C       3.7333129150    -1.9413204384    -0.4902108160
   14      O       3.7154111284    -2.5110239865    -1.6041594726
   15      O      -3.3149255210     2.5156221482    -1.1304793537
   16      O       3.2096273983    -2.5290335615     0.7123025811
   17      O       2.1695087049     0.8106128523     2.4533213108
   18      C       2.4535821152    -3.7612516871     0.3954455754
   19      C       4.6615269311     1.5570765867     0.7121312722
   20      C       6.2061743619     1.6238944457     0.3799119363
   21      C       6.2487047049     0.9824060545    -1.0581470426
   22      C       4.7649105038     0.4641305846    -1.1776872766
   23      O       3.9956571067     1.6004983194    -0.6160786980
   24      H       4.7525926991    -0.2537696469     2.1041124289
   25      H       5.6183043732    -1.1402076231     0.0601356479
   26      H       4.2842953998     2.3703905093     1.3624569819
   27      H       6.5565012294     2.6680307620     0.3729788615
   28      H       6.8039800359     1.0573939594     1.1120952672
   29      H       6.4507680007     1.7433598218    -1.8291776624
   30      H       6.9926309366     0.1749506240    -1.1495538962
   31      H       4.4149427981     0.2099329598    -2.1970503472
   32      O      -1.9401788555    -1.5182801233     0.8884438104
   33      C      -2.4032248716     3.5915077611    -0.6793457251
   34      C      -5.7847336019     0.1667174464     0.4650371899
   35      C      -6.8584361079    -0.6701916689    -0.3361950586
   36      C      -6.1076068419    -2.0443658911    -0.5001337992
   37      C      -4.7623224841    -1.7542655886     0.2733862586
   38      O      -5.1693133943    -0.8364919908     1.3634580015
   39      H      -5.0048072983     0.8374378345    -1.5298286727
   40      H      -3.7667483845    -1.1893168442    -1.6712039423
   41      H      -1.4693313074     3.1749195952    -0.2494963389
   42      H      -6.1829459869     1.0173025105     1.0512194331
   43      H      -7.7792655788    -0.7824018218     0.2582977694
   44      H      -7.1147701830    -0.2054796535    -1.3015827753
   45      H      -6.6594665425    -2.8676493374    -0.0194716877
   46      H      -5.9301639675    -2.3076097257    -1.5553223433
   47      H      -4.2427119055    -2.6387254695     0.6903398298
   48      H      -2.8805955202     4.2415134554     0.0820331679
   49      H      -2.1623603396     4.1870339871    -1.5790402930
   50      H       1.3664247964    -3.5698848647     0.5010079029
   51      H       2.7570350840    -4.5461904510     1.1142660143
   52      H       2.6766883614    -4.0788256140    -0.6433849795
   53      H       0.2832832815     0.5126169210     1.4281310933
   54      H       0.0950233792    -1.2343678792     1.0170148973
   55      H       0.1815656454     1.0948783650    -1.0612387790
   56      H       0.1690183230    -0.6538461563    -1.4732865643
 ----------------------------------------------------------------

    9   -1510.2661352964      4.79E-09 Convergence criterion met
 Total energy in the final basis set = -1510.26613530
 Final energy is   -1510.26613529641
 **  OPTIMIZATION CONVERGED  **

                    Orbital Energies (a.u.)
 --------------------------------------------------------------

 Alpha MOs
 -- Occupied --
-18.939 -18.933 -18.930 -18.927 -18.887 -18.887 -18.885 -18.872
-18.871 -18.869 -10.109 -10.100 -10.100 -10.094 -10.077 -10.062
-10.061 -10.061 -10.060 -10.058 -10.057 -10.055 -10.040 -10.039
-10.038 -10.035 -10.023 -10.021 -10.020 -10.019  -1.017  -1.013
 -1.005  -1.004  -0.972  -0.968  -0.946  -0.936  -0.931  -0.931
 -0.766  -0.762  -0.730  -0.723  -0.708  -0.704  -0.698  -0.660
 -0.657  -0.617  -0.597  -0.587  -0.546  -0.544  -0.538  -0.536
 -0.512  -0.509  -0.488  -0.472  -0.462  -0.459  -0.456  -0.441
 -0.436  -0.430  -0.429  -0.410  -0.409  -0.408  -0.406  -0.400
 -0.392  -0.382  -0.376  -0.366  -0.365  -0.359  -0.352  -0.348
 -0.344  -0.342  -0.336  -0.332  -0.330  -0.328  -0.319  -0.313
 -0.310  -0.307  -0.305  -0.298  -0.297  -0.293  -0.284  -0.275
 -0.272  -0.252  -0.249  -0.245  -0.242  -0.236  -0.232  -0.186
 -0.179  -0.172  -0.165  -0.157  -0.154  -0.151  -0.147  -0.146
 -0.142

          Ground-State Mulliken Net Atomic Charges

     Atom                 Charge (a.u.)
  ----------------------------------------
      1 O                    -0.213890
      2 C                     0.208897
      3 C                    -0.079449
      4 C                    -0.076537
      5 C                     0.216232
      6 O                    -0.173588
      7 C                    -0.048425
      8 C                    -0.060841
      9 O                    -0.172122
     10 C                     0.218303
     11 C                    -0.074399
     12 C                    -0.078712
     13 C                     0.218584
     14 O                    -0.221083
     15 O                    -0.168012
     16 O                    -0.171386
     17 O                    -0.215540
     18 C                    -0.135697
     19 C                     0.023068
     20 C                    -0.145944
     21 C                    -0.140885
     22 C                     0.024426
     23 O                    -0.193878
     24 H                     0.089657
     25 H                     0.083586
     26 H                     0.085466
     27 H                     0.078850
     28 H                     0.074317
     29 H                     0.078060
     30 H                     0.074286
     31 H                     0.088683
     32 O                    -0.205808
     33 C                    -0.127946
     34 C                     0.025300
     35 C                    -0.143436
     36 C                    -0.144600
     37 C                     0.023884
     38 O                    -0.186350
     39 H                     0.085494
     40 H                     0.085331
     41 H                     0.087364
     42 H                     0.085383
     43 H                     0.078068
     44 H                     0.073192
     45 H                     0.078250
     46 H                     0.072606
     47 H                     0.089048
     48 H                     0.089167
     49 H                     0.089112
     50 H                     0.083542
     51 H                     0.085926
     52 H                     0.099756
     53 H                     0.101071
     54 H                     0.104740
     55 H                     0.093008
     56 H                     0.085872
  ----------------------------------------
  Sum of atomic charges =     0.000000

                    Cartesian Multipole Moments
 -----------------------------------------------------------------
    Charge (ESU x 10^10)
                 0.0000
    Dipole Moment (Debye)
         X       0.8030      Y      -0.3097      Z      -2.4443
       Tot       2.5914
    Quadrupole Moments (Debye-Ang)
        XX    -137.0781     XY       2.6578     YY    -153.5814
        XZ      13.0788     YZ      -2.2191     ZZ    -171.0974

 Total job time:  84.81s(wall), 4034.78s(cpu)
        *  Thank you very much for using Q-Chem.  Have a nice day.  *
