 Q-Chem 5.0, Q-Chem, Inc., Pleasanton, CA (2017)
 Q-Chem 5.0.1 for Intel X86 EM64T Linux

User input:
--------------------------------------------------------------
$molecule
0  1
O -3.94934 -3.66094 2.70899
C -3.26408 -4.56952 2.26188
C -3.36658 -6.02376 2.66595
C -2.26795 -6.5756 3.58918
C -1.28821 -5.56804 4.14866
O -0.81565 -4.77291 3.14373
C 0.2862 -3.95226 3.54584
C 0.07928 -3.45707 4.97346
O 1.22328 -2.70044 5.39967
C 1.1218 -2.1311 6.62633
C 2.29171 -2.45592 7.52436
C 3.3214 -3.42282 6.92176
C 3.23018 -3.63608 5.42413
O 4.02263 -3.20776 4.59761
O -2.40545 -4.29177 1.24347
O 2.74326 -4.88508 5.17272
O 0.15995 -1.46483 6.98119
C 3.27766 -5.763 4.24429
C 3.17704 -1.24678 7.86637
C 3.91179 -1.51218 9.17869
C 4.88966 -2.58543 8.74271
C 4.60497 -2.62331 7.23537
O 4.22277 -1.30315 6.92749
H 1.85146 -2.88034 8.45519
H 3.31737 -4.41328 7.43241
H 2.61434 -0.28932 7.92017
H 4.48312 -0.58764 9.42204
H 3.26771 -1.78158 10.0433
H 5.92146 -2.22009 8.94235
H 4.74063 -3.58312 9.20961
H 5.49107 -3.01634 6.68965
O -0.54117 -6.05485 4.99228
C -2.21001 -3.03409 0.71164
C -4.60452 -6.27804 3.5602
C -5.00953 -7.75009 3.49244
C -3.89343 -8.38421 4.29104
C -3.13127 -7.13347 4.73926
O -4.1278 -6.15342 4.87597
H -3.50689 -6.61043 1.73035
H -1.6675 -7.36438 3.08188
H -1.83718 -2.34105 1.49595
H -5.47845 -5.64295 3.29555
H -5.95834 -7.85678 4.06599
H -5.15368 -8.15697 2.46848
H -4.34018 -8.90288 5.16847
H -3.24201 -9.08545 3.7258
H -2.54593 -7.36053 5.6569
H -3.16054 -2.6454 0.28788
H -1.45529 -3.09539 -0.09889
H 2.66857 -6.69001 4.22749
H 4.31794 -6.02542 4.53182
H 3.28849 -5.31648 3.22727
H -0.82025 -2.80078 4.95765
H -0.07347 -4.15798 5.80602
H 0.38267 -3.09443 2.84749
H 1.19192 -4.54902 3.43879
$end

$opt
CONSTRAINT
tors           1           2           3           4    -104.624
tors           3           4           5           6     -48.756
tors           4           5           6           7    -169.659
tors           5           6           7           8     -37.771
tors           6           7           8           9    +176.597
tors           7           8           9          10    +175.877
tors           8           9          10          11    +128.066
tors           9          10          11          12      -3.437
tors          11          12          13          14    +107.996
ENDCONSTRAINT
$end

$rem
JOBTYPE                   OPT
METHOD                    B3LYP
DFT_D                     d3_op
BASIS                     STO-3G
GEOM_OPT_MAX_CYCLES       100
GEOM_OPT_TOL_GRADIENT     300
GEOM_OPT_TOL_DISPLACEMENT 1200
GEOM_OPT_TOL_ENERGY       100
SYMMETRY                  False
THRESH                    12
SCF_CONVERGENCE           8
MAX_SUB_FILE_NUM          128
MEM_STATIC                400
MEM_TOTAL                 4000
$end
--------------------------------------------------------------

   16   -1510.0837944281      5.41E-09 Convergence criterion met
 Total energy in the final basis set = -1510.08379443
   14   -1510.1602549327      2.77E-09 Convergence criterion met
 Total energy in the final basis set = -1510.16025493
   15   -1510.2020262894      1.89E-09 Convergence criterion met
 Total energy in the final basis set = -1510.20202629
   15   -1510.2250769193      2.00E-09 Convergence criterion met
 Total energy in the final basis set = -1510.22507692
   14   -1510.2395716532      6.27E-09 Convergence criterion met
 Total energy in the final basis set = -1510.23957165
   14   -1510.2481297830      3.21E-09 Convergence criterion met
 Total energy in the final basis set = -1510.24812978
   13   -1510.2527491140      6.85E-09 Convergence criterion met
 Total energy in the final basis set = -1510.25274911
   13   -1510.2556246232      7.27E-09 Convergence criterion met
   12   -1510.2642820238      3.90E-09 Convergence criterion met
 Total energy in the final basis set = -1510.26428202
   11   -1510.2643122693      5.70E-09 Convergence criterion met
 Total energy in the final basis set = -1510.26431227
   11   -1510.2643236274      6.22E-09 Convergence criterion met
 Total energy in the final basis set = -1510.26432363
    9   -1510.2643416409      9.77E-09 Convergence criterion met
 Total energy in the final basis set = -1510.26434164
   11   -1510.2643609035      2.23E-09 Convergence criterion met
 Total energy in the final basis set = -1510.26436090
   10   -1510.2643669578      7.44E-09 Convergence criterion met
 Total energy in the final basis set = -1510.26436696

             Standard Nuclear Orientation (Angstroms)
    I     Atom           X                Y                Z
 ----------------------------------------------------------------
    1      O      -3.9292503753     1.8291304934     1.5734310795
    2      C      -3.9567512979     1.5867020601     0.3476308533
    3      C      -4.5733231326     0.3331774577    -0.3662412518
    4      C      -3.5400909029    -0.7475659452    -0.9027412358
    5      C      -2.0615316311    -0.6343836266    -0.3635536460
    6      O      -1.6269337228     0.7101825820    -0.4937558240
    7      C      -0.1790261056     0.9593199173    -0.2579850849
    8      C       0.5480349018     0.1504911089     0.8811871788
    9      O       1.9499476447     0.6044030014     0.7463772129
   10      C       2.8076879101     0.0574290373     1.7676781846
   11      C       4.0922965258    -0.6318260873     1.1650980049
   12      C       4.2084301952    -0.6983349466    -0.4123294659
   13      C       2.8798184737    -0.5522399479    -1.2395941725
   14      O       2.4783441261     0.4019784161    -1.9419745555
   15      O      -3.5791696662     2.5289416419    -0.6649332377
   16      O       2.2135976311    -1.8199382921    -1.1279401944
   17      O       2.5435508234     0.1051770308     2.9879344848
   18      C       1.0042838809    -1.8813502850    -1.9820692526
   19      C       5.3307716591     0.3186761001     1.4825917283
   20      C       6.6855592151    -0.3993923781     1.0991081976
   21      C       6.7079114615    -0.2121151793    -0.4637589621
   22      C       5.2877152774     0.4331545767    -0.6965409401
   23      O       5.1649549281     1.3667954123     0.4477242249
   24      H       4.1881483965    -1.6281059877     1.6334752952
   25      H       4.6216911420    -1.6863859462    -0.6852426596
   26      H       5.3040840222     0.7622009689     2.4972308699
   27      H       7.5389105933     0.1021252318     1.5823690589
   28      H       6.6852133660    -1.4598757945     1.3990353457
   29      H       7.5018206866     0.4868119467    -0.7725662627
   30      H       6.8376488200    -1.1614181608    -1.0079377629
   31      H       5.1460750475     0.9718104741    -1.6536785138
   32      O      -1.3582665273    -1.6160466057    -0.0227599789
   33      C      -3.0011324429     3.7371133728    -0.0355832024
   34      C      -5.4782563911    -0.5616077841     0.5847588335
   35      C      -6.5006870733    -1.3409112030    -0.3316366009
   36      C      -5.5433979403    -2.3825952959    -1.0230348528
   37      C      -4.1730269496    -2.0700960894    -0.3039069906
   38      O      -4.5693236356    -1.6312421316     1.0558187568
   39      H      -5.1649093950     0.7162399297    -1.2173948593
   40      H      -3.4984910859    -0.7479331698    -2.0079748153
   41      H      -2.0764839698     3.4987871195     0.5283097303
   42      H      -5.9135239953    -0.0165270637     1.4447102118
   43      H      -7.2630732996    -1.8428881011     0.2851350364
   44      H      -7.0056779249    -0.6794243028    -1.0533527003
   45      H      -5.8578593257    -3.4187829181    -0.8217080861
   46      H      -5.4787850115    -2.2399237388    -2.1138261114
   47      H      -3.4536014790    -2.9099635661    -0.2437078560
   48      H      -3.7193404573     4.2211894179     0.6575309145
   49      H      -2.7598363710     4.4283525085    -0.8638511213
   50      H       0.0991866036    -1.9198572612    -1.3366146263
   51      H       1.0642216558    -2.8023415348    -2.5935186772
   52      H       0.9596351467    -0.9919019457    -2.6414573624
   53      H       0.1238763076     0.3933513971     1.8805561299
   54      H       0.4499313355    -0.9399983256     0.7039847690
   55      H      -0.1168005551     2.0418087556    -0.0257914812
   56      H       0.3848662281     0.7832140760    -1.2027010774
 ----------------------------------------------------------------

    9   -1510.2643687513      8.14E-09 Convergence criterion met
 Total energy in the final basis set = -1510.26436875
 Final energy is   -1510.26436875132
 **  OPTIMIZATION CONVERGED  **

                    Orbital Energies (a.u.)
 --------------------------------------------------------------

 Alpha MOs
 -- Occupied --
-18.953 -18.930 -18.924 -18.921 -18.892 -18.890 -18.887 -18.886
-18.871 -18.869 -10.117 -10.108 -10.099 -10.098 -10.076 -10.071
-10.062 -10.060 -10.059 -10.059 -10.057 -10.048 -10.044 -10.040
-10.038 -10.035 -10.022 -10.021 -10.020 -10.019  -1.025  -1.013
 -1.006  -1.002  -0.971  -0.970  -0.952  -0.942  -0.932  -0.930
 -0.766  -0.763  -0.730  -0.723  -0.710  -0.705  -0.701  -0.661
 -0.658  -0.618  -0.598  -0.590  -0.546  -0.545  -0.539  -0.537
 -0.516  -0.509  -0.489  -0.474  -0.464  -0.459  -0.456  -0.443
 -0.438  -0.432  -0.431  -0.413  -0.409  -0.407  -0.407  -0.400
 -0.398  -0.382  -0.377  -0.369  -0.368  -0.360  -0.352  -0.347
 -0.345  -0.341  -0.337  -0.334  -0.333  -0.331  -0.326  -0.315
 -0.310  -0.310  -0.307  -0.304  -0.300  -0.288  -0.286  -0.276
 -0.271  -0.253  -0.251  -0.244  -0.240  -0.235  -0.233  -0.193
 -0.176  -0.172  -0.169  -0.160  -0.157  -0.151  -0.149  -0.145
 -0.144

          Ground-State Mulliken Net Atomic Charges

     Atom                 Charge (a.u.)
  ----------------------------------------
      1 O                    -0.214820
      2 C                     0.211908
      3 C                    -0.080599
      4 C                    -0.075642
      5 C                     0.219309
      6 O                    -0.165105
      7 C                    -0.051757
      8 C                    -0.055187
      9 O                    -0.184196
     10 C                     0.220651
     11 C                    -0.076874
     12 C                    -0.079921
     13 C                     0.218386
     14 O                    -0.222188
     15 O                    -0.167726
     16 O                    -0.179150
     17 O                    -0.194078
     18 C                    -0.146904
     19 C                     0.024494
     20 C                    -0.145212
     21 C                    -0.142327
     22 C                     0.024019
     23 O                    -0.190169
     24 H                     0.089096
     25 H                     0.084467
     26 H                     0.085468
     27 H                     0.078611
     28 H                     0.073802
     29 H                     0.078035
     30 H                     0.073118
     31 H                     0.088590
     32 O                    -0.215718
     33 C                    -0.127252
     34 C                     0.023929
     35 C                    -0.142850
     36 C                    -0.145196
     37 C                     0.023126
     38 O                    -0.189638
     39 H                     0.085248
     40 H                     0.086949
     41 H                     0.086427
     42 H                     0.088777
     43 H                     0.078525
     44 H                     0.073220
     45 H                     0.078800
     46 H                     0.072854
     47 H                     0.090079
     48 H                     0.088560
     49 H                     0.089741
     50 H                     0.094211
     51 H                     0.081613
     52 H                     0.090571
     53 H                     0.088727
     54 H                     0.105884
     55 H                     0.093796
     56 H                     0.101516
  ----------------------------------------
  Sum of atomic charges =     0.000000

                    Cartesian Multipole Moments
 -----------------------------------------------------------------
    Charge (ESU x 10^10)
                 0.0000
    Dipole Moment (Debye)
         X      -0.3256      Y      -1.2011      Z      -2.8087
       Tot       3.0720
    Quadrupole Moments (Debye-Ang)
        XX    -140.3101     XY      -7.8440     YY    -158.6575
        XZ       8.7808     YZ       3.5484     ZZ    -166.9253

 Total job time:  80.53s(wall), 3833.88s(cpu)
        *  Thank you very much for using Q-Chem.  Have a nice day.  *
