 Q-Chem 5.0, Q-Chem, Inc., Pleasanton, CA (2017)
 Q-Chem 5.0.1 for Intel X86 EM64T Linux

User input:
--------------------------------------------------------------
$molecule
0  1
O -3.9292503753 1.8291304934 1.5734310795
C -3.9567512979 1.5867020601 0.3476308533
C -4.5733231326 0.3331774577 -0.3662412518
C -3.5400909029 -0.7475659452 -0.9027412358
C -2.0615316311 -0.6343836266 -0.363553646
O -1.6269337228 0.710182582 -0.493755824
C -0.1790261056 0.9593199173 -0.2579850849
C 0.5480349018 0.1504911089 0.8811871788
O 1.9499476447 0.6044030014 0.7463772129
C 2.8076879101 0.0574290373 1.7676781846
C 4.0922965258 -0.6318260873 1.1650980049
C 4.2084301952 -0.6983349466 -0.4123294659
C 2.8798184737 -0.5522399479 -1.2395941725
O 2.4783441261 0.4019784161 -1.9419745555
O -3.5791696662 2.5289416419 -0.6649332377
O 2.2135976311 -1.8199382921 -1.1279401944
O 2.5435508234 0.1051770308 2.9879344848
C 1.0042838809 -1.881350285 -1.9820692526
C 5.3307716591 0.3186761001 1.4825917283
C 6.6855592151 -0.3993923781 1.0991081976
C 6.7079114615 -0.2121151793 -0.4637589621
C 5.2877152774 0.4331545767 -0.6965409401
O 5.1649549281 1.3667954123 0.4477242249
H 4.1881483965 -1.6281059877 1.6334752952
H 4.621691142 -1.6863859462 -0.6852426596
H 5.3040840222 0.7622009689 2.4972308699
H 7.5389105933 0.1021252318 1.5823690589
H 6.685213366 -1.4598757945 1.3990353457
H 7.5018206866 0.4868119467 -0.7725662627
H 6.83764882 -1.1614181608 -1.0079377629
H 5.1460750475 0.9718104741 -1.6536785138
O -1.3582665273 -1.6160466057 -0.0227599789
C -3.0011324429 3.7371133728 -0.0355832024
C -5.4782563911 -0.5616077841 0.5847588335
C -6.5006870733 -1.340911203 -0.3316366009
C -5.5433979403 -2.3825952959 -1.0230348528
C -4.1730269496 -2.0700960894 -0.3039069906
O -4.5693236356 -1.6312421316 1.0558187568
H -5.164909395 0.7162399297 -1.2173948593
H -3.4984910859 -0.7479331698 -2.0079748153
H -2.0764839698 3.4987871195 0.5283097303
H -5.9135239953 -0.0165270637 1.4447102118
H -7.2630732996 -1.8428881011 0.2851350364
H -7.0056779249 -0.6794243028 -1.0533527003
H -5.8578593257 -3.4187829181 -0.8217080861
H -5.4787850115 -2.2399237388 -2.1138261114
H -3.453601479 -2.9099635661 -0.243707856
H -3.7193404573 4.2211894179 0.6575309145
H -2.759836371 4.4283525085 -0.8638511213
H 0.0991866036 -1.9198572612 -1.3366146263
H 1.0642216558 -2.8023415348 -2.5935186772
H 0.9596351467 -0.9919019457 -2.6414573624
H 0.1238763076 0.3933513971 1.8805561299
H 0.4499313355 -0.9399983256 0.703984769
H -0.1168005551 2.0418087556 -0.0257914812
H 0.3848662281 0.783214076 -1.2027010774
$end

$rem
JOBTYPE                   OPT
METHOD                    B3LYP
DFT_D                     d3_op
BASIS                     STO-3G
GEOM_OPT_MAX_CYCLES       100
GEOM_OPT_TOL_GRADIENT     300
GEOM_OPT_TOL_DISPLACEMENT 1200
GEOM_OPT_TOL_ENERGY       100
SYMMETRY                  False
THRESH                    12
SCF_CONVERGENCE           8
MAX_SUB_FILE_NUM          128
MEM_STATIC                400
MEM_TOTAL                 4000
$end
--------------------------------------------------------------

   16   -1510.2644842263      4.80E-09 Convergence criterion met
 Total energy in the final basis set = -1510.26448423
   14   -1510.2689181496      3.48E-09 Convergence criterion met
 Total energy in the final basis set = -1510.26891815
   14   -1510.2711986351      2.00E-09 Convergence criterion met
 Total energy in the final basis set = -1510.27119864
   14   -1510.2771094952      3.35E-09 Convergence criterion met
 Total energy in the final basis set = -1510.27710950
   14   -1510.2806637756      7.72E-09 Convergence criterion met
 Total energy in the final basis set = -1510.28066378
   13   -1510.2843802265      9.21E-09 Convergence criterion met
 Total energy in the final basis set = -1510.28438023
   13   -1510.2868545294      9.29E-09 Convergence criterion met
 Total energy in the final basis set = -1510.28685453
   14   -1510.2884067523      5.41E-09 Convergence criterion met
   12   -1510.2938128813      2.23E-09 Convergence criterion met
 Total energy in the final basis set = -1510.29381288
   11   -1510.2938523843      7.19E-09 Convergence criterion met
 Total energy in the final basis set = -1510.29385238
   11   -1510.2938429771      6.95E-09 Convergence criterion met
 Total energy in the final basis set = -1510.29384298
   10   -1510.2938510206      8.30E-09 Convergence criterion met
 Total energy in the final basis set = -1510.29385102
   10   -1510.2938497741      8.76E-09 Convergence criterion met
 Total energy in the final basis set = -1510.29384977
   11   -1510.2938427823      4.97E-09 Convergence criterion met
 Total energy in the final basis set = -1510.29384278

             Standard Nuclear Orientation (Angstroms)
    I     Atom           X                Y                Z
 ----------------------------------------------------------------
    1      O      -2.4230714384     1.3573021258     1.3085757160
    2      C      -3.1613305761     1.5238076708     0.3132412750
    3      C      -4.2718777232     0.5598047998    -0.2349285809
    4      C      -3.7077055602    -0.7591944460    -0.9182711548
    5      C      -2.1450553517    -0.8938579870    -0.8771414362
    6      O      -1.5734452050     0.3480137541    -1.2839967678
    7      C      -0.0948324098     0.3312237958    -1.1710544352
    8      C       0.3883621860     0.3687023750     0.3241094685
    9      O       1.8633484454     0.4019302946     0.2238786731
   10      C       2.4988011382    -0.0722069539     1.4176524234
   11      C       4.0222041881    -0.1986096181     1.0774267565
   12      C       4.2643738368    -1.0150409981    -0.2631145920
   13      C       2.9500409056    -1.6222172467    -0.8811823447
   14      O       2.4839929189    -1.4499683943    -2.0288044806
   15      O      -3.1629166661     2.7041915996    -0.5009448448
   16      O       2.3920902427    -2.5030487211     0.0978324366
   17      O       1.9079981427    -0.3258067191     2.4871981253
   18      C       1.2162021876    -3.2272665972    -0.4450177694
   19      C       4.6469184973     1.2068048600     0.6710714865
   20      C       6.2206966451     1.0604013157     0.6145955203
   21      C       6.4086271809     0.2945511772    -0.7483207047
   22      C       4.9071659186     0.0960951221    -1.1913094921
   23      O       4.2558766345     1.3514418766    -0.7486985176
   24      H       4.5389705205    -0.6527443089     1.9405922778
   25      H       4.9701292774    -1.8469922462    -0.0849418885
   26      H       4.2747848028     2.0637298217     1.2656497143
   27      H       6.6999364501     2.0519700694     0.5920089459
   28      H       6.6136154990     0.4972230981     1.4761912733
   29      H       6.9489359457     0.9107905663    -1.4845662669
   30      H       6.9404491980    -0.6630821875    -0.6305133613
   31      H       4.7357701481    -0.0671912643    -2.2731951479
   32      O      -1.4939264779    -1.9157076696    -0.5634395101
   33      C      -2.1011718226     3.6315435663    -0.0498495892
   34      C      -5.1413153294    -0.0741658714     0.9363736600
   35      C      -6.4643758891    -0.6620860020     0.3040980653
   36      C      -5.9162874413    -1.9610609925    -0.3963961399
   37      C      -4.3836318020    -1.8813705612    -0.0275864425
   38      O      -4.3771591199    -1.2800050441     1.3265778173
   39      H      -4.8962348051     1.1301873499    -0.9444018007
   40      H      -4.0304099703    -0.8197806737    -1.9745673488
   41      H      -1.0920875068     3.2097495237    -0.2345961268
   42      H      -5.2874205762     0.5896688520     1.8103127384
   43      H      -7.1922462408    -0.9053802667     1.0943976910
   44      H      -6.9327006329     0.0395626143    -0.4046034101
   45      H      -6.3685705766    -2.8715636932     0.0277829845
   46      H      -6.0802898233    -1.9591335307    -1.4857576972
   47      H      -3.8312686635    -2.8414197293    -0.0280842948
   48      H      -2.1922133122     3.8661908111     1.0302428312
   49      H      -2.2262125444     4.5551045595    -0.6443939577
   50      H       0.2979331925    -2.5951534213    -0.4736681118
   51      H       1.0467507053    -4.0779300091     0.2401558439
   52      H       1.4208784702    -3.6087781754    -1.4650108319
   53      H      -0.0139296848     1.2650030931     0.8455264501
   54      H       0.0439116542    -0.5312884766     0.8748813090
   55      H       0.2477558501     1.2456469732    -1.6948269306
   56      H       0.3506200235    -0.5546457061    -1.6764107001
 ----------------------------------------------------------------

    9   -1510.2938430057      4.04E-09 Convergence criterion met
 Total energy in the final basis set = -1510.29384301
 Final energy is   -1510.29384300571
 **  OPTIMIZATION CONVERGED  **

                    Orbital Energies (a.u.)
 --------------------------------------------------------------

 Alpha MOs
 -- Occupied --
-18.949 -18.932 -18.929 -18.922 -18.893 -18.889 -18.885 -18.875
-18.869 -18.865 -10.115 -10.098 -10.097 -10.094 -10.073 -10.066
-10.063 -10.061 -10.060 -10.059 -10.055 -10.044 -10.040 -10.038
-10.034 -10.032 -10.022 -10.021 -10.019 -10.017  -1.026  -1.011
 -1.007  -0.999  -0.972  -0.967  -0.951  -0.935  -0.933  -0.927
 -0.767  -0.761  -0.730  -0.722  -0.709  -0.704  -0.696  -0.663
 -0.650  -0.616  -0.596  -0.584  -0.547  -0.543  -0.540  -0.534
 -0.515  -0.508  -0.486  -0.476  -0.464  -0.459  -0.456  -0.442
 -0.432  -0.432  -0.428  -0.414  -0.410  -0.406  -0.401  -0.399
 -0.389  -0.378  -0.373  -0.366  -0.365  -0.358  -0.351  -0.346
 -0.344  -0.341  -0.334  -0.333  -0.329  -0.327  -0.324  -0.312
 -0.308  -0.306  -0.303  -0.300  -0.292  -0.287  -0.287  -0.275
 -0.271  -0.257  -0.253  -0.246  -0.242  -0.236  -0.232  -0.190
 -0.177  -0.175  -0.170  -0.161  -0.153  -0.149  -0.145  -0.144
 -0.141

          Ground-State Mulliken Net Atomic Charges

     Atom                 Charge (a.u.)
  ----------------------------------------
      1 O                    -0.220266
      2 C                     0.212236
      3 C                    -0.079665
      4 C                    -0.077663
      5 C                     0.221338
      6 O                    -0.168193
      7 C                    -0.051045
      8 C                    -0.053228
      9 O                    -0.173518
     10 C                     0.214515
     11 C                    -0.078012
     12 C                    -0.077685
     13 C                     0.213795
     14 O                    -0.222335
     15 O                    -0.168605
     16 O                    -0.177441
     17 O                    -0.205729
     18 C                    -0.145922
     19 C                     0.025674
     20 C                    -0.144088
     21 C                    -0.143673
     22 C                     0.024272
     23 O                    -0.186999
     24 H                     0.085626
     25 H                     0.083326
     26 H                     0.081883
     27 H                     0.077419
     28 H                     0.073787
     29 H                     0.077299
     30 H                     0.072953
     31 H                     0.088923
     32 O                    -0.210147
     33 C                    -0.128582
     34 C                     0.025686
     35 C                    -0.143738
     36 C                    -0.144117
     37 C                     0.024026
     38 O                    -0.186591
     39 H                     0.086709
     40 H                     0.087324
     41 H                     0.085236
     42 H                     0.084982
     43 H                     0.078675
     44 H                     0.073768
     45 H                     0.079031
     46 H                     0.073352
     47 H                     0.090694
     48 H                     0.089924
     49 H                     0.090295
     50 H                     0.106129
     51 H                     0.085135
     52 H                     0.082526
     53 H                     0.092334
     54 H                     0.099303
     55 H                     0.095745
     56 H                     0.103322
  ----------------------------------------
  Sum of atomic charges =     0.000000

                    Cartesian Multipole Moments
 -----------------------------------------------------------------
    Charge (ESU x 10^10)
                 0.0000
    Dipole Moment (Debye)
         X      -0.6175      Y       0.7059      Z      -1.6024
       Tot       1.8567
    Quadrupole Moments (Debye-Ang)
        XX    -132.2867     XY      -1.3953     YY    -154.5461
        XZ       7.5141     YZ       5.2009     ZZ    -169.3671

 Total job time:  86.82s(wall), 4139.44s(cpu)
        *  Thank you very much for using Q-Chem.  Have a nice day.  *
