 Q-Chem 5.0, Q-Chem, Inc., Pleasanton, CA (2017)
 Q-Chem 5.0.1 for Intel X86 EM64T Linux

User input:
--------------------------------------------------------------
$molecule
0  1
O -3.5696470516 0.1360792533 2.3797314805
C -3.9179836746 0.8749120531 1.4339753332
C -4.7953991743 0.4925489908 0.191774173
C -3.9690023708 -0.1117431436 -1.025236429
C -2.4542310503 -0.4044612835 -0.7078230266
O -1.8770694038 0.8167167725 -0.2387550089
C -0.3930710491 0.8813904283 -0.2660127854
C 0.3747137541 -0.3828925008 0.2594157724
O 1.8213390293 -0.0910663133 0.0869049136
C 2.6015233405 -1.0335597789 0.8361632627
C 4.0290078153 -1.2608939235 0.2064809905
C 4.6015958954 -0.0956446768 -0.6927600344
C 3.5720761444 0.8493251415 -1.4065808165
O 3.4699498865 2.0896863821 -1.2999718342
O -3.6329755283 2.2779773577 1.3608989218
O 2.9200375447 0.0742981757 -2.4279434018
O 2.1671267052 -1.6495162664 1.8338947952
C 2.0943735052 0.9546917787 -3.281128517
C 5.048650496 -1.1845583711 1.4213611176
C 6.5163125291 -1.5277041937 0.9492479784
C 6.9522363827 -0.1757758156 0.2686242938
C 5.5933572169 0.6224646748 0.3198266777
O 5.0732201031 0.2807014805 1.6652004581
H 4.0265365098 -2.233963676 -0.3181449015
H 5.1844319474 -0.5537765119 -1.5136737893
H 4.6961740887 -1.7236338749 2.3224094517
H 7.1539622201 -1.7740414571 1.8128753326
H 6.5318824443 -2.3778122847 0.2480897728
H 7.7229216895 0.3414945535 0.8624533022
H 7.3268667623 -0.3123646278 -0.7583850893
H 5.6614511397 1.720480584 0.1922342062
O -1.8578197134 -1.4819093317 -0.9240862734
C -2.7570567974 2.6707829935 2.4876832947
C -5.8008085281 -0.7009269403 0.4876685845
C -6.9378044075 -0.6560926045 -0.6072456366
C -6.157348753 -1.1764727499 -1.871876935
C -4.7357294867 -1.4783561529 -1.2541533363
O -5.0331700844 -1.9150648692 0.1302363975
H -5.3317938066 1.4026959267 -0.1298954497
H -4.0108776206 0.5565333813 -1.9051586654
H -1.7863750399 2.1355590793 2.4514011538
H -6.1476328206 -0.7586583012 1.5375381813
H -7.7595722649 -1.3367876952 -0.3330980287
H -7.3477805846 0.3572030165 -0.7439004259
H -6.6068977083 -2.0971491141 -2.276379273
H -6.1064446699 -0.4258722315 -2.6769083408
H -4.1312429452 -2.2444701172 -1.7776197968
H -3.233894163 2.4669488612 3.4683095475
H -2.5842754429 3.7571458692 2.3777639755
H 1.6390944287 0.3004264081 -4.0473981862
H 2.7066476765 1.7360007086 -3.7768486492
H 1.292501182 1.4593864808 -2.7049209131
H 0.137889171 -0.5771703433 1.3273866111
H 0.0670985451 -1.2664902692 -0.339347262
H -0.1320787662 1.7679064187 0.3473671628
H -0.0682901163 1.0780941996 -1.3113456501
$end

$rem
JOBTYPE                   OPT
METHOD                    B3LYP
DFT_D                     d3_op
BASIS                     STO-3G
GEOM_OPT_MAX_CYCLES       100
GEOM_OPT_TOL_GRADIENT     300
GEOM_OPT_TOL_DISPLACEMENT 1200
GEOM_OPT_TOL_ENERGY       100
SYMMETRY                  False
THRESH                    12
SCF_CONVERGENCE           8
MAX_SUB_FILE_NUM          128
MEM_STATIC                400
MEM_TOTAL                 4000
$end
--------------------------------------------------------------

   15   -1510.2678320012      8.79E-09 Convergence criterion met
 Total energy in the final basis set = -1510.26783200
   14   -1510.2730241398      6.68E-09 Convergence criterion met
 Total energy in the final basis set = -1510.27302414
   14   -1510.2767775333      3.17E-09 Convergence criterion met
 Total energy in the final basis set = -1510.27677753
   14   -1510.2792565398      9.03E-09 Convergence criterion met
 Total energy in the final basis set = -1510.27925654
   14   -1510.2814703788      5.56E-09 Convergence criterion met
 Total energy in the final basis set = -1510.28147038
   14   -1510.2828144120      4.34E-09 Convergence criterion met
 Total energy in the final basis set = -1510.28281441
   13   -1510.2837252588      4.21E-09 Convergence criterion met
 Total energy in the final basis set = -1510.28372526
   14   -1510.2847799639      3.08E-09 Convergence criterion met
   10   -1510.2986178638      7.43E-09 Convergence criterion met
 Total energy in the final basis set = -1510.29861786
   10   -1510.2986159396      6.60E-09 Convergence criterion met
 Total energy in the final basis set = -1510.29861594
   10   -1510.2986139732      9.00E-09 Convergence criterion met
 Total energy in the final basis set = -1510.29861397
   10   -1510.2986067515      8.78E-09 Convergence criterion met
 Total energy in the final basis set = -1510.29860675
    9   -1510.2986123760      5.45E-09 Convergence criterion met
 Total energy in the final basis set = -1510.29861238
    9   -1510.2986098970      5.92E-09 Convergence criterion met
 Total energy in the final basis set = -1510.29860990

             Standard Nuclear Orientation (Angstroms)
    I     Atom           X                Y                Z
 ----------------------------------------------------------------
    1      O      -2.0539122438     0.8122017860     1.2676943518
    2      C      -2.6458000924     1.1916129664     0.2295737244
    3      C      -3.8890921119     0.5150164696    -0.4401104184
    4      C      -3.9396462966    -1.0560949801    -0.2374910365
    5      C      -2.6933399372    -1.6615469898     0.5066226949
    6      O      -1.5560679241    -1.5204272518    -0.3522765356
    7      C      -0.3364753978    -2.0439955393     0.3099362673
    8      C       0.0963294606    -1.1639878182     1.5516799231
    9      O       1.5593267922    -0.9112353156     1.5413199145
   10      C       1.8818385796     0.2180805760     0.7297445640
   11      C       3.4435747338     0.4115263470     0.7705819723
   12      C       4.2650576031    -0.6069886566    -0.1206788414
   13      C       3.3552854760    -1.5576465918    -0.9636467947
   14      O       2.1403907268    -1.4034210503    -1.2285710380
   15      O      -2.3089363570     2.3601465441    -0.5069473323
   16      O       4.1414386156    -2.6475996644    -1.4425277154
   17      O       1.0501892041     0.9758362157     0.1843846247
   18      C       3.3069520371    -3.5497009338    -2.2723678619
   19      C       3.8679716652     1.7955911676     0.1241054732
   20      C       5.3271029756     2.1415908606     0.6140824890
   21      C       6.1757355840     1.1122406418    -0.2216757226
   22      C       5.0488768260     0.4029702026    -1.0724497430
   23      O       4.0539482914     1.4704070376    -1.3102672500
   24      H       3.7640853345     0.3386351137     1.8253664961
   25      H       4.9626072474    -1.2202359235     0.4770628911
   26      H       3.1134502655     2.5974485333     0.2405097147
   27      H       5.5854564527     3.1810471051     0.3562570396
   28      H       5.4429585966     2.0064458845     1.7013063237
   29      H       6.8947524158     1.6207552916    -0.8833971889
   30      H       6.7227257753     0.3969099409     0.4129173042
   31      H       5.3866449249    -0.0406248685    -2.0294058686
   32      O      -2.6780279556    -2.2362034409     1.6160043959
   33      C      -1.1210683834     3.0169688192     0.0978477835
   34      C      -5.2275956205     0.9461998002     0.3079117634
   35      C      -6.4620790260     0.5204498440    -0.5832893067
   36      C      -6.5029533398    -1.0321427338    -0.3264447043
   37      C      -5.2586807197    -1.2131080955     0.6265073270
   38      O      -5.2818244403     0.0154191837     1.4561159308
   39      H      -3.9109202128     0.7978514955    -1.5069127298
   40      H      -4.0322675459    -1.5633922285    -1.2150606867
   41      H      -0.2613676985     2.3091727248     0.1474592280
   42      H      -5.2395005431     1.9975368554     0.6559322869
   43      H      -7.3808915745     1.0146072539    -0.2294813938
   44      H      -6.3114300015     0.7728590330    -1.6452616513
   45      H      -7.4294556585    -1.3300870806     0.1898328479
   46      H      -6.4099770509    -1.6210621422    -1.2529621457
   47      H      -5.2683670116    -2.1127378859     1.2719434353
   48      H      -1.3505703218     3.3925310202     1.1156959358
   49      H      -0.8822421641     3.8690742492    -0.5638311902
   50      H       3.9880273171    -4.3369588512    -2.6442790481
   51      H       2.8529494184    -3.0112757921    -3.1289589072
   52      H       2.4947140869    -4.0127341810    -1.6756024521
   53      H      -0.4873771548    -0.2119507015     1.5249876036
   54      H      -0.1094038926    -1.6962584993     2.5002895172
   55      H       0.4651473346    -1.9834157919    -0.4603637167
   56      H      -0.4841080756    -3.1010798430     0.6166098095
 ----------------------------------------------------------------

    9   -1510.2986096878      3.66E-09 Convergence criterion met
 Total energy in the final basis set = -1510.29860969
 Final energy is   -1510.29860968776
 **  OPTIMIZATION CONVERGED  **

                    Orbital Energies (a.u.)
 --------------------------------------------------------------

 Alpha MOs
 -- Occupied --
-18.949 -18.929 -18.923 -18.916 -18.891 -18.891 -18.881 -18.870
-18.868 -18.860 -10.113 -10.099 -10.094 -10.087 -10.073 -10.065
-10.060 -10.055 -10.051 -10.047 -10.044 -10.043 -10.039 -10.037
-10.031 -10.028 -10.024 -10.022 -10.016 -10.014  -1.025  -1.006
 -1.002  -0.995  -0.974  -0.964  -0.948  -0.930  -0.928  -0.921
 -0.766  -0.756  -0.727  -0.718  -0.711  -0.701  -0.683  -0.671
 -0.649  -0.611  -0.593  -0.576  -0.548  -0.540  -0.537  -0.530
 -0.516  -0.503  -0.479  -0.462  -0.461  -0.457  -0.449  -0.445
 -0.434  -0.429  -0.422  -0.421  -0.418  -0.410  -0.399  -0.397
 -0.384  -0.380  -0.366  -0.363  -0.357  -0.354  -0.349  -0.347
 -0.343  -0.340  -0.333  -0.330  -0.324  -0.321  -0.316  -0.313
 -0.308  -0.304  -0.299  -0.297  -0.290  -0.283  -0.275  -0.272
 -0.269  -0.261  -0.252  -0.239  -0.237  -0.229  -0.225  -0.190
 -0.178  -0.169  -0.166  -0.152  -0.150  -0.148  -0.147  -0.140
 -0.137

          Ground-State Mulliken Net Atomic Charges

     Atom                 Charge (a.u.)
  ----------------------------------------
      1 O                    -0.218041
      2 C                     0.219102
      3 C                    -0.078138
      4 C                    -0.079733
      5 C                     0.212202
      6 O                    -0.175606
      7 C                    -0.062211
      8 C                    -0.066011
      9 O                    -0.178177
     10 C                     0.222769
     11 C                    -0.080580
     12 C                    -0.077926
     13 C                     0.218638
     14 O                    -0.209464
     15 O                    -0.167731
     16 O                    -0.165976
     17 O                    -0.218193
     18 C                    -0.128428
     19 C                     0.025076
     20 C                    -0.143801
     21 C                    -0.143669
     22 C                     0.025653
     23 O                    -0.188112
     24 H                     0.085729
     25 H                     0.088772
     26 H                     0.089125
     27 H                     0.078653
     28 H                     0.074206
     29 H                     0.078835
     30 H                     0.074369
     31 H                     0.084099
     32 O                    -0.216270
     33 C                    -0.144306
     34 C                     0.025344
     35 C                    -0.143855
     36 C                    -0.143997
     37 C                     0.024421
     38 O                    -0.188216
     39 H                     0.087158
     40 H                     0.083016
     41 H                     0.118270
     42 H                     0.082177
     43 H                     0.077168
     44 H                     0.073536
     45 H                     0.077090
     46 H                     0.072540
     47 H                     0.089171
     48 H                     0.079657
     49 H                     0.083790
     50 H                     0.093625
     51 H                     0.093389
     52 H                     0.090932
     53 H                     0.116006
     54 H                     0.089045
     55 H                     0.106296
     56 H                     0.078582
  ----------------------------------------
  Sum of atomic charges =     0.000000

                    Cartesian Multipole Moments
 -----------------------------------------------------------------
    Charge (ESU x 10^10)
                -0.0000
    Dipole Moment (Debye)
         X       2.5892      Y      -0.7438      Z      -1.6590
       Tot       3.1638
    Quadrupole Moments (Debye-Ang)
        XX    -138.6427     XY      -2.9887     YY    -151.0542
        XZ      11.0720     YZ       9.3347     ZZ    -163.8401

 Total job time:  215.06s(wall), 10253.65s(cpu)
        *  Thank you very much for using Q-Chem.  Have a nice day.  *
