 Q-Chem 5.0, Q-Chem, Inc., Pleasanton, CA (2017)
 Q-Chem 5.0.1 for Intel X86 EM64T Linux

User input:
--------------------------------------------------------------
$molecule
0  1
O -3.94934 -3.66094 2.70899
C -3.26408 -4.56952 2.26188
C -3.36658 -6.02376 2.66595
C -2.54875 -6.47278 3.88799
C -1.8594 -5.38119 4.67624
O -1.05241 -4.65156 3.8505
C -0.07793 -3.87622 4.55654
C -0.72376 -3.18172 5.75099
O 0.26691 -2.44091 6.48081
C -0.21739 -1.54399 7.37532
C 0.72597 -1.2945 8.52792
C 2.20347 -1.5892 8.23058
C 2.56605 -1.73757 6.7666
O 3.39323 -1.06395 6.16945
O -2.30101 -4.27509 1.34924
O 2.54171 -3.04503 6.36127
O -1.39402 -1.20632 7.42451
C 3.22701 -3.54897 5.27007
C 0.82089 0.19655 8.92344
C 1.25652 0.30497 10.38311
C 2.69344 -0.16376 10.2816
C 2.83326 -0.28425 8.75811
O 1.95289 0.68627 8.24917
H 0.32445 -1.85861 9.39999
H 2.56661 -2.49226 8.77055
H -0.12361 0.76113 8.76387
H 1.25264 1.39006 10.63521
H 0.63156 -0.24089 11.12222
H 3.35184 0.63498 10.68933
H 2.91297 -1.1337 10.77838
H 3.90075 -0.17775 8.46438
O -1.49296 -5.73967 5.79148
C -2.03238 -3.00406 0.88656
C -4.79314 -6.36993 3.14438
C -5.04473 -7.87034 3.00681
C -4.1792 -8.40156 4.12686
C -3.68404 -7.08752 4.74065
O -4.74789 -6.19289 4.53705
H -3.16113 -6.62846 1.75376
H -1.77341 -7.2273 3.62529
H -1.72708 -2.34749 1.72949
H -5.58536 -5.80467 2.60533
H -6.11219 -8.05086 3.26834
H -4.8368 -8.29562 2.00145
H -4.83206 -8.94411 4.8466
H -3.33781 -9.05523 3.81025
H -3.39633 -7.26274 5.79993
H -2.92938 -2.5812 0.38566
H -1.202 -3.05212 0.15272
H 3.03808 -4.63844 5.18728
H 4.31972 -3.39747 5.4014
H 2.89012 -3.04673 4.33859
H -1.46021 -2.47871 5.29782
H -1.27556 -3.73923 6.52398
H 0.39723 -3.14809 3.86586
H 0.69992 -4.56655 4.94124
$end

$opt
CONSTRAINT
tors           1           2           3           4     -86.841
tors           3           4           5           6     -55.756
tors           4           5           6           7    -162.451
tors           5           6           7           8     -44.460
tors           6           7           8           9    +178.115
tors           7           8           9          10    +165.678
tors           8           9          10          11    +152.325
tors           9          10          11          12     +24.088
tors          11          12          13          14    +121.859
ENDCONSTRAINT
$end

$rem
JOBTYPE                   OPT
METHOD                    B3LYP
DFT_D                     d3_op
BASIS                     STO-3G
GEOM_OPT_MAX_CYCLES       100
GEOM_OPT_TOL_GRADIENT     300
GEOM_OPT_TOL_DISPLACEMENT 1200
GEOM_OPT_TOL_ENERGY       100
SYMMETRY                  False
THRESH                    12
SCF_CONVERGENCE           8
MAX_SUB_FILE_NUM          128
MEM_STATIC                400
MEM_TOTAL                 4000
$end
--------------------------------------------------------------

   16   -1510.0909546418      3.46E-09 Convergence criterion met
 Total energy in the final basis set = -1510.09095464
   14   -1510.1660848899      2.57E-09 Convergence criterion met
 Total energy in the final basis set = -1510.16608489
   15   -1510.2067702241      2.45E-09 Convergence criterion met
 Total energy in the final basis set = -1510.20677022
   15   -1510.2326577741      2.06E-09 Convergence criterion met
 Total energy in the final basis set = -1510.23265777
   14   -1510.2457017538      7.47E-09 Convergence criterion met
 Total energy in the final basis set = -1510.24570175
   14   -1510.2536893154      3.13E-09 Convergence criterion met
 Total energy in the final basis set = -1510.25368932
   13   -1510.2586586377      5.73E-09 Convergence criterion met
 Total energy in the final basis set = -1510.25865864
   13   -1510.2617314329      3.28E-09 Convergence criterion met
   12   -1510.2676302125      3.26E-09 Convergence criterion met
 Total energy in the final basis set = -1510.26763021
   11   -1510.2676863334      7.18E-09 Convergence criterion met
 Total energy in the final basis set = -1510.26768633
    9   -1510.2676923636      5.90E-09 Convergence criterion met
 Total energy in the final basis set = -1510.26769236
   10   -1510.2676999319      9.03E-09 Convergence criterion met
 Total energy in the final basis set = -1510.26769993
    9   -1510.2677022639      7.93E-09 Convergence criterion met
 Total energy in the final basis set = -1510.26770226
    9   -1510.2677047381      8.73E-09 Convergence criterion met
 Total energy in the final basis set = -1510.26770474

             Standard Nuclear Orientation (Angstroms)
    I     Atom           X                Y                Z
 ----------------------------------------------------------------
    1      O      -3.5696470516     0.1360792533     2.3797314805
    2      C      -3.9179836746     0.8749120531     1.4339753332
    3      C      -4.7953991743     0.4925489908     0.1917741730
    4      C      -3.9690023708    -0.1117431436    -1.0252364290
    5      C      -2.4542310503    -0.4044612835    -0.7078230266
    6      O      -1.8770694038     0.8167167725    -0.2387550089
    7      C      -0.3930710491     0.8813904283    -0.2660127854
    8      C       0.3747137541    -0.3828925008     0.2594157724
    9      O       1.8213390293    -0.0910663133     0.0869049136
   10      C       2.6015233405    -1.0335597789     0.8361632627
   11      C       4.0290078153    -1.2608939235     0.2064809905
   12      C       4.6015958954    -0.0956446768    -0.6927600344
   13      C       3.5720761444     0.8493251415    -1.4065808165
   14      O       3.4699498865     2.0896863821    -1.2999718342
   15      O      -3.6329755283     2.2779773577     1.3608989218
   16      O       2.9200375447     0.0742981757    -2.4279434018
   17      O       2.1671267052    -1.6495162664     1.8338947952
   18      C       2.0943735052     0.9546917787    -3.2811285170
   19      C       5.0486504960    -1.1845583711     1.4213611176
   20      C       6.5163125291    -1.5277041937     0.9492479784
   21      C       6.9522363827    -0.1757758156     0.2686242938
   22      C       5.5933572169     0.6224646748     0.3198266777
   23      O       5.0732201031     0.2807014805     1.6652004581
   24      H       4.0265365098    -2.2339636760    -0.3181449015
   25      H       5.1844319474    -0.5537765119    -1.5136737893
   26      H       4.6961740887    -1.7236338749     2.3224094517
   27      H       7.1539622201    -1.7740414571     1.8128753326
   28      H       6.5318824443    -2.3778122847     0.2480897728
   29      H       7.7229216895     0.3414945535     0.8624533022
   30      H       7.3268667623    -0.3123646278    -0.7583850893
   31      H       5.6614511397     1.7204805840     0.1922342062
   32      O      -1.8578197134    -1.4819093317    -0.9240862734
   33      C      -2.7570567974     2.6707829935     2.4876832947
   34      C      -5.8008085281    -0.7009269403     0.4876685845
   35      C      -6.9378044075    -0.6560926045    -0.6072456366
   36      C      -6.1573487530    -1.1764727499    -1.8718769350
   37      C      -4.7357294867    -1.4783561529    -1.2541533363
   38      O      -5.0331700844    -1.9150648692     0.1302363975
   39      H      -5.3317938066     1.4026959267    -0.1298954497
   40      H      -4.0108776206     0.5565333813    -1.9051586654
   41      H      -1.7863750399     2.1355590793     2.4514011538
   42      H      -6.1476328206    -0.7586583012     1.5375381813
   43      H      -7.7595722649    -1.3367876952    -0.3330980287
   44      H      -7.3477805846     0.3572030165    -0.7439004259
   45      H      -6.6068977083    -2.0971491141    -2.2763792730
   46      H      -6.1064446699    -0.4258722315    -2.6769083408
   47      H      -4.1312429452    -2.2444701172    -1.7776197968
   48      H      -3.2338941630     2.4669488612     3.4683095475
   49      H      -2.5842754429     3.7571458692     2.3777639755
   50      H       1.6390944287     0.3004264081    -4.0473981862
   51      H       2.7066476765     1.7360007086    -3.7768486492
   52      H       1.2925011820     1.4593864808    -2.7049209131
   53      H       0.1378891710    -0.5771703433     1.3273866111
   54      H       0.0670985451    -1.2664902692    -0.3393472620
   55      H      -0.1320787662     1.7679064187     0.3473671628
   56      H      -0.0682901163     1.0780941996    -1.3113456501
 ----------------------------------------------------------------

    9   -1510.2677061241      2.38E-09 Convergence criterion met
 Total energy in the final basis set = -1510.26770612
 Final energy is   -1510.26770612406
 **  OPTIMIZATION CONVERGED  **

                    Orbital Energies (a.u.)
 --------------------------------------------------------------

 Alpha MOs
 -- Occupied --
-18.945 -18.933 -18.930 -18.926 -18.891 -18.887 -18.883 -18.879
-18.870 -18.869 -10.112 -10.102 -10.098 -10.096 -10.081 -10.067
-10.063 -10.061 -10.059 -10.058 -10.057 -10.056 -10.042 -10.040
-10.037 -10.034 -10.021 -10.020 -10.020 -10.018  -1.021  -1.013
 -1.005  -1.003  -0.970  -0.968  -0.950  -0.938  -0.931  -0.931
 -0.765  -0.762  -0.730  -0.722  -0.710  -0.703  -0.700  -0.662
 -0.660  -0.617  -0.597  -0.590  -0.546  -0.544  -0.538  -0.537
 -0.513  -0.508  -0.487  -0.473  -0.462  -0.458  -0.457  -0.443
 -0.438  -0.430  -0.430  -0.413  -0.411  -0.408  -0.406  -0.400
 -0.396  -0.386  -0.377  -0.370  -0.368  -0.355  -0.354  -0.349
 -0.344  -0.341  -0.335  -0.332  -0.330  -0.329  -0.322  -0.312
 -0.310  -0.308  -0.306  -0.300  -0.299  -0.291  -0.286  -0.277
 -0.270  -0.253  -0.251  -0.249  -0.240  -0.234  -0.232  -0.187
 -0.182  -0.173  -0.170  -0.160  -0.157  -0.147  -0.147  -0.144
 -0.142

          Ground-State Mulliken Net Atomic Charges

     Atom                 Charge (a.u.)
  ----------------------------------------
      1 O                    -0.214493
      2 C                     0.210060
      3 C                    -0.079893
      4 C                    -0.076345
      5 C                     0.216404
      6 O                    -0.171057
      7 C                    -0.046878
      8 C                    -0.059724
      9 O                    -0.175876
     10 C                     0.215799
     11 C                    -0.075197
     12 C                    -0.081608
     13 C                     0.218633
     14 O                    -0.218124
     15 O                    -0.168238
     16 O                    -0.173601
     17 O                    -0.207291
     18 C                    -0.127366
     19 C                     0.023475
     20 C                    -0.145801
     21 C                    -0.141795
     22 C                     0.022470
     23 O                    -0.192163
     24 H                     0.088320
     25 H                     0.083565
     26 H                     0.089390
     27 H                     0.078631
     28 H                     0.073315
     29 H                     0.077887
     30 H                     0.072630
     31 H                     0.089393
     32 O                    -0.205640
     33 C                    -0.127732
     34 C                     0.025245
     35 C                    -0.143331
     36 C                    -0.144695
     37 C                     0.023615
     38 O                    -0.187237
     39 H                     0.085434
     40 H                     0.085445
     41 H                     0.087061
     42 H                     0.086570
     43 H                     0.078338
     44 H                     0.073260
     45 H                     0.078534
     46 H                     0.072509
     47 H                     0.089758
     48 H                     0.088797
     49 H                     0.089238
     50 H                     0.088329
     51 H                     0.086920
     52 H                     0.081834
     53 H                     0.096793
     54 H                     0.107959
     55 H                     0.095133
     56 H                     0.083341
  ----------------------------------------
  Sum of atomic charges =    -0.000000

                    Cartesian Multipole Moments
 -----------------------------------------------------------------
    Charge (ESU x 10^10)
                 0.0000
    Dipole Moment (Debye)
         X      -0.3421      Y       1.1766      Z      -3.2732
       Tot       3.4950
    Quadrupole Moments (Debye-Ang)
        XX    -139.2340     XY     -13.2171     YY    -165.7541
        XZ       0.9562     YZ       4.3710     ZZ    -158.3909

 Total job time:  70.50s(wall), 3353.95s(cpu)
        *  Thank you very much for using Q-Chem.  Have a nice day.  *
