 Q-Chem 5.0, Q-Chem, Inc., Pleasanton, CA (2017)
 Q-Chem 5.0.1 for Intel X86 EM64T Linux

User input:
--------------------------------------------------------------
$molecule
0  1
O -3.7063586977 0.6177531884 2.4542326207
C -3.8276326115 1.1204213947 1.3164828735
C -4.6758192771 0.5795453349 0.1135749747
C -3.8538465757 -0.2352777142 -0.9781859294
C -2.3935315364 -0.6444145889 -0.5449239093
O -1.6688107565 0.5531015687 -0.2723866109
C -0.1860478662 0.4576958835 -0.2225697507
C 0.5288304766 -0.9340523982 -0.3762318606
O 1.9722181428 -0.5770697261 -0.3686596848
C 2.7814125519 -1.6311991406 0.1455868384
C 4.3025580358 -1.2518973079 0.0384746952
C 4.6799186735 0.1220492692 -0.6626566258
C 3.5208384089 0.9071977618 -1.3747874331
O 2.9751840272 1.9669900597 -0.9974390054
O -3.2806308352 2.3883100738 0.9340452605
O 3.2774895397 0.2726956241 -2.6430591858
O 2.3262495146 -2.6922292804 0.6253895096
C 2.1783525607 0.9619896403 -3.3542435231
C 4.8721729973 -0.9896318218 1.5023877623
C 6.4515831223 -0.9865889607 1.4512899814
C 6.7379430541 0.4309257722 0.8299746479
C 5.2689473307 0.9402448868 0.5651445357
O 4.5164344698 0.4280163348 1.7340159028
H 4.8177629483 -2.1012081338 -0.4463378246
H 5.4603144565 -0.0631556088 -1.4224691971
H 4.4264868024 -1.6396180137 2.2806522478
H 6.8691313447 -1.0777053892 2.4665306035
H 6.8442021474 -1.8100223123 0.8335125296
H 7.2502751122 1.0898806641 1.54902573
H 7.3360666999 0.3814379828 -0.0938866063
H 5.1423561795 2.0367222082 0.4763566124
O -1.9487861105 -1.8095440045 -0.4845012634
C -2.4418252223 2.9276375953 2.0276159825
C -5.7595632287 -0.4991224312 0.5418174833
C -6.8824950882 -0.5135973334 -0.5677605969
C -6.1182151579 -1.2124133751 -1.7536963982
C -4.733031007 -1.5499220756 -1.0742838142
O -5.078262743 -1.798525035 0.3455003067
H -5.1538622667 1.4533996578 -0.3648925266
H -3.7960292023 0.3215024655 -1.9314428068
H -1.5712800093 2.2718347653 2.2328223636
H -6.1132928576 -0.4020581559 1.5865260565
H -7.74218693 -1.1165714732 -0.2344358814
H -7.2364137522 0.4979726956 -0.8228848883
H -6.6258020318 -2.135560163 -2.0749770348
H -5.9985062471 -0.5535020738 -2.6286837948
H -4.1881216727 -2.4179663297 -1.4933564704
H -3.0200533492 3.0488572178 2.9665264644
H -2.0847801948 3.9148125398 1.6808575987
H 1.290476191 0.2993165887 -3.3969282676
H 2.511221178 1.1893010315 -4.3854047059
H 1.9227092971 1.8983781262 -2.8176458194
H 0.304712919 -1.6358619756 0.4529276536
H 0.2789176611 -1.4250178451 -1.3400206841
H 0.1278121661 0.8955753273 0.7498023873
H 0.1964170343 1.1282076853 -1.0234632976
$end

$rem
JOBTYPE                   OPT
METHOD                    B3LYP
DFT_D                     d3_op
BASIS                     STO-3G
GEOM_OPT_MAX_CYCLES       100
GEOM_OPT_TOL_GRADIENT     300
GEOM_OPT_TOL_DISPLACEMENT 1200
GEOM_OPT_TOL_ENERGY       100
SYMMETRY                  False
THRESH                    12
SCF_CONVERGENCE           8
MAX_SUB_FILE_NUM          128
MEM_STATIC                400
MEM_TOTAL                 4000
$end
--------------------------------------------------------------

   16   -1510.2703474583      6.61E-09 Convergence criterion met
 Total energy in the final basis set = -1510.27034746
   15   -1510.2716889644      2.48E-09 Convergence criterion met
 Total energy in the final basis set = -1510.27168896
   14   -1510.2731127874      6.03E-09 Convergence criterion met
 Total energy in the final basis set = -1510.27311279
   13   -1510.2741671924      7.50E-09 Convergence criterion met
 Total energy in the final basis set = -1510.27416719
   14   -1510.2752311177      6.10E-09 Convergence criterion met
 Total energy in the final basis set = -1510.27523112
   14   -1510.2761689419      5.22E-09 Convergence criterion met
 Total energy in the final basis set = -1510.27616894
   14   -1510.2773125771      5.20E-09 Convergence criterion met
 Total energy in the final basis set = -1510.27731258
   15   -1510.2691560091      1.87E-09 Convergence criterion met
   12   -1510.2938498238      6.95E-09 Convergence criterion met
 Total energy in the final basis set = -1510.29384982
   12   -1510.2938552493      5.05E-09 Convergence criterion met
 Total energy in the final basis set = -1510.29385525
   11   -1510.2939021632      9.74E-09 Convergence criterion met
 Total energy in the final basis set = -1510.29390216
   11   -1510.2938892368      7.06E-09 Convergence criterion met
 Total energy in the final basis set = -1510.29388924
   10   -1510.2938956169      7.49E-09 Convergence criterion met
 Total energy in the final basis set = -1510.29389562
   10   -1510.2938974142      7.90E-09 Convergence criterion met
 Total energy in the final basis set = -1510.29389741

             Standard Nuclear Orientation (Angstroms)
    I     Atom           X                Y                Z
 ----------------------------------------------------------------
    1      O      -2.3658795704     0.9509811372     1.5628752125
    2      C      -3.1297934342     1.3444390061     0.6540257942
    3      C      -4.2213037719     0.5208835341    -0.1164887739
    4      C      -3.6422590869    -0.4984891604    -1.1907522904
    5      C      -2.0756099820    -0.5952246650    -1.2097845226
    6      O      -1.5404772958     0.7264888667    -1.2035968362
    7      C      -0.0651763249     0.7182335736    -1.0502604105
    8      C       0.3739423861     0.2688075294     0.3906175381
    9      O       1.8439350337     0.4267040283     0.3862036272
   10      C       2.4793564794    -0.3999111907     1.3692149085
   11      C       4.0136870794    -0.3343926521     1.0640152688
   12      C       4.3218429390    -0.6431579981    -0.4637966759
   13      C       3.0509416764    -1.0687009915    -1.2908354776
   14      O       2.5971859308    -0.5500985637    -2.3345030287
   15      O      -3.1951023772     2.6986651330     0.1878222063
   16      O       2.5191380070    -2.2437239793    -0.6721864850
   17      O       1.8826746743    -1.0350320796     2.2624546604
   18      C       1.3937143525    -2.8011043544    -1.4631535680
   19      C       4.5690227131     1.1523774711     1.1712157713
   20      C       6.1483700723     1.1025244183     1.1220488475
   21      C       6.4001168859     0.8471089392    -0.4111172093
   22      C       4.9189146704     0.7416883845    -0.9456993795
   23      O       4.1942487950     1.7461424812    -0.1313441100
   24      H       4.5380210844    -1.0277281212     1.7440905251
   25      H       5.0669218966    -1.4554509129    -0.5509686303
   26      H       4.1417387314     1.7427463352     2.0049670899
   27      H       6.5751163638     2.0642205639     1.4481906388
   28      H       6.5558032805     0.3009787734     1.7586443022
   29      H       6.9191469969     1.6981962661    -0.8804362166
   30      H       6.9807586587    -0.0698963767    -0.6007696869
   31      H       4.7745929777     0.9430625417    -2.0250344013
   32      O      -1.3954598133    -1.6457625398    -1.2360243869
   33      C      -2.1597463872     3.5166899386     0.8588789128
   34      C      -5.0028682831    -0.4817920302     0.8402163855
   35      C      -6.3470771554    -0.8952820400     0.1230705077
   36      C      -5.8090663312    -1.8706142384    -0.9892758139
   37      C      -4.2612064543    -1.8634582381    -0.6801671903
   38      O      -4.1924522318    -1.7197990339     0.7932308705
   39      H      -4.9069379707     1.2397784176    -0.5976964696
   40      H      -3.9892073081    -0.2361085539    -2.2076312420
   41      H      -1.1417860462     3.2335367036     0.5213745476
   42      H      -5.1086938967    -0.1300211340     1.8846414954
   43      H      -7.0128317635    -1.4176818119     0.8284299826
   44      H      -6.8835421194    -0.0269603130    -0.2918964447
   45      H      -6.2207167599    -2.8854746564    -0.8721731558
   46      H      -6.0283414735    -1.5154380807    -2.0088794886
   47      H      -3.6956975297    -2.7571182263    -1.0090823304
   48      H      -2.2064646953     3.4124484751     1.9618973529
   49      H      -2.3615474957     4.5651843564     0.5727840535
   50      H       0.4408573227    -2.2419413032    -1.3106477448
   51      H       1.2629728426    -3.8390262331    -1.1060181186
   52      H       1.6345026933    -2.8092175533    -2.5446885309
   53      H      -0.1199624745     0.9009681518     1.1621800226
   54      H       0.0884084587    -0.7866525782     0.5805988009
   55      H       0.2498521977     1.7663767323    -1.2233596158
   56      H       0.4303000536     0.0705456176    -1.8075214464
 ----------------------------------------------------------------

    9   -1510.2938967035      3.97E-09 Convergence criterion met
 Total energy in the final basis set = -1510.29389670
 Final energy is   -1510.29389670347
 **  OPTIMIZATION CONVERGED  **

                    Orbital Energies (a.u.)
 --------------------------------------------------------------

 Alpha MOs
 -- Occupied --
-18.949 -18.932 -18.928 -18.923 -18.893 -18.889 -18.885 -18.874
-18.869 -18.866 -10.115 -10.099 -10.096 -10.094 -10.072 -10.064
-10.063 -10.061 -10.060 -10.058 -10.055 -10.044 -10.041 -10.038
-10.034 -10.032 -10.022 -10.021 -10.018 -10.017  -1.026  -1.011
 -1.007  -0.999  -0.972  -0.967  -0.951  -0.934  -0.933  -0.928
 -0.766  -0.760  -0.729  -0.722  -0.709  -0.704  -0.695  -0.663
 -0.650  -0.615  -0.596  -0.583  -0.546  -0.543  -0.539  -0.534
 -0.515  -0.507  -0.485  -0.476  -0.464  -0.459  -0.456  -0.441
 -0.432  -0.432  -0.428  -0.414  -0.410  -0.405  -0.401  -0.399
 -0.388  -0.378  -0.374  -0.366  -0.365  -0.358  -0.350  -0.346
 -0.343  -0.341  -0.335  -0.333  -0.329  -0.327  -0.324  -0.312
 -0.308  -0.306  -0.303  -0.300  -0.292  -0.287  -0.286  -0.276
 -0.271  -0.256  -0.253  -0.245  -0.242  -0.236  -0.231  -0.189
 -0.177  -0.175  -0.169  -0.161  -0.153  -0.150  -0.146  -0.144
 -0.140

          Ground-State Mulliken Net Atomic Charges

     Atom                 Charge (a.u.)
  ----------------------------------------
      1 O                    -0.221408
      2 C                     0.213359
      3 C                    -0.079935
      4 C                    -0.077458
      5 C                     0.221042
      6 O                    -0.168261
      7 C                    -0.051257
      8 C                    -0.055476
      9 O                    -0.173949
     10 C                     0.214685
     11 C                    -0.078053
     12 C                    -0.077509
     13 C                     0.213698
     14 O                    -0.222282
     15 O                    -0.168474
     16 O                    -0.177301
     17 O                    -0.205607
     18 C                    -0.145531
     19 C                     0.025642
     20 C                    -0.144141
     21 C                    -0.143572
     22 C                     0.024201
     23 O                    -0.186868
     24 H                     0.085493
     25 H                     0.083264
     26 H                     0.082092
     27 H                     0.077352
     28 H                     0.073773
     29 H                     0.077256
     30 H                     0.072901
     31 H                     0.088887
     32 O                    -0.209992
     33 C                    -0.128985
     34 C                     0.025369
     35 C                    -0.143529
     36 C                    -0.144355
     37 C                     0.023971
     38 O                    -0.186955
     39 H                     0.086681
     40 H                     0.087431
     41 H                     0.085594
     42 H                     0.085391
     43 H                     0.078737
     44 H                     0.073815
     45 H                     0.079082
     46 H                     0.073386
     47 H                     0.090633
     48 H                     0.090471
     49 H                     0.090281
     50 H                     0.105647
     51 H                     0.085392
     52 H                     0.082935
     53 H                     0.096032
     54 H                     0.098020
     55 H                     0.095286
     56 H                     0.103101
  ----------------------------------------
  Sum of atomic charges =     0.000000

                    Cartesian Multipole Moments
 -----------------------------------------------------------------
    Charge (ESU x 10^10)
                 0.0000
    Dipole Moment (Debye)
         X      -0.7045      Y       1.1206      Z      -1.2632
       Tot       1.8297
    Quadrupole Moments (Debye-Ang)
        XX    -132.0017     XY      -2.7274     YY    -159.2123
        XZ       6.5829     YZ       8.3773     ZZ    -164.4443

 Total job time:  128.50s(wall), 6127.64s(cpu)
        *  Thank you very much for using Q-Chem.  Have a nice day.  *
