 Q-Chem 5.0, Q-Chem, Inc., Pleasanton, CA (2017)
 Q-Chem 5.0.1 for Intel X86 EM64T Linux

User input:
--------------------------------------------------------------
$molecule
0  1
O -3.94934 -3.66094 2.70899
C -3.26408 -4.56952 2.26188
C -3.36658 -6.02376 2.66595
C -2.34933 -6.53997 3.69677
C -1.45659 -5.5027 4.34112
O -0.71475 -4.87026 3.38449
C 0.41056 -4.16529 3.91922
C 0.40732 -4.24793 5.44214
O 1.58597 -3.61853 5.96893
C 1.45703 -3.08402 7.20862
C 2.753 -2.52527 7.74614
C 3.97456 -2.73725 6.83998
C 3.67466 -3.14021 5.41015
O 3.80785 -2.42328 4.42891
O -2.2974 -4.27111 1.35416
O 3.7947 -4.49024 5.22101
O 0.41082 -3.03198 7.84415
C 3.93468 -5.15264 4.01545
C 2.75262 -0.99589 7.90436
C 3.78473 -0.59437 8.9557
C 5.07234 -0.89814 8.21649
C 4.51505 -1.28909 6.8414
O 3.34028 -0.52298 6.71831
H 2.90689 -3.00835 8.73766
H 4.71755 -3.4517 7.26068
H 1.75413 -0.5782 8.15896
H 3.70071 0.50851 9.08644
H 3.6788 -1.0887 9.94532
H 5.66739 0.03977 8.15128
H 5.69003 -1.7135 8.65141
H 5.28818 -1.12624 6.05823
O -2.03934 -4.87223 5.21866
C -2.03155 -2.99967 0.89073
C -4.67704 -6.34361 3.43027
C -5.01806 -7.82652 3.28103
C -3.94851 -8.45161 4.15231
C -3.29235 -7.19151 4.72701
O -4.34244 -6.25872 4.79372
H -3.39341 -6.61227 1.72121
H -1.66032 -7.28092 3.23372
H -1.7342 -2.34014 1.73405
H -5.54116 -5.72622 3.10025
H -6.00657 -7.98082 3.77075
H -5.06625 -8.20883 2.2388
H -4.44718 -9.04009 4.95417
H -3.21028 -9.08644 3.61602
H -2.77314 -7.41905 5.68408
H -2.92729 -2.58177 0.38353
H -1.19629 -3.04556 0.16232
H 3.14136 -5.9216 3.92482
H 4.91497 -5.6717 4.00182
H 3.88271 -4.46916 3.1416
H -0.42758 -3.59057 5.76244
H 0.39982 -5.28348 5.85678
H 0.37816 -3.10213 3.59762
H 1.32359 -4.62636 3.50654
$end

$opt
CONSTRAINT
tors           1           2           3           4     -98.776
tors           3           4           5           6     -60.296
tors           4           5           6           7    -163.046
tors           5           6           7           8      -3.763
tors           6           7           8           9    +176.064
tors           7           8           9          10    +151.381
tors           8           9          10          11    +175.917
tors           9          10          11          12      -3.437
tors          11          12          13          14    +107.996
ENDCONSTRAINT
$end

$rem
JOBTYPE                   OPT
METHOD                    B3LYP
DFT_D                     d3_op
BASIS                     STO-3G
GEOM_OPT_MAX_CYCLES       100
GEOM_OPT_TOL_GRADIENT     300
GEOM_OPT_TOL_DISPLACEMENT 1200
GEOM_OPT_TOL_ENERGY       100
SYMMETRY                  False
THRESH                    12
SCF_CONVERGENCE           8
MAX_SUB_FILE_NUM          128
MEM_STATIC                400
MEM_TOTAL                 4000
$end
--------------------------------------------------------------

   16   -1510.0899701179      3.53E-09 Convergence criterion met
 Total energy in the final basis set = -1510.08997012
   14   -1510.1666957267      7.00E-09 Convergence criterion met
 Total energy in the final basis set = -1510.16669573
   15   -1510.2103954759      1.31E-09 Convergence criterion met
 Total energy in the final basis set = -1510.21039548
   15   -1510.2360926589      1.45E-09 Convergence criterion met
 Total energy in the final basis set = -1510.23609266
   14   -1510.2486890654      6.33E-09 Convergence criterion met
 Total energy in the final basis set = -1510.24868907
   14   -1510.2570290198      5.18E-09 Convergence criterion met
 Total energy in the final basis set = -1510.25702902
   13   -1510.2623055886      8.53E-09 Convergence criterion met
 Total energy in the final basis set = -1510.26230559
   13   -1510.2658665235      8.12E-09 Convergence criterion met
   10   -1510.2703980287      7.28E-09 Convergence criterion met
 Total energy in the final basis set = -1510.27039803
   11   -1510.2704228588      5.30E-09 Convergence criterion met
 Total energy in the final basis set = -1510.27042286
   10   -1510.2704362581      9.88E-09 Convergence criterion met
 Total energy in the final basis set = -1510.27043626
   10   -1510.2704451791      9.91E-09 Convergence criterion met
 Total energy in the final basis set = -1510.27044518
    9   -1510.2704472666      6.64E-09 Convergence criterion met
 Total energy in the final basis set = -1510.27044727
    9   -1510.2704486025      5.89E-09 Convergence criterion met
 Total energy in the final basis set = -1510.27044860

             Standard Nuclear Orientation (Angstroms)
    I     Atom           X                Y                Z
 ----------------------------------------------------------------
    1      O      -3.7063586977     0.6177531884     2.4542326207
    2      C      -3.8276326115     1.1204213947     1.3164828735
    3      C      -4.6758192771     0.5795453349     0.1135749747
    4      C      -3.8538465757    -0.2352777142    -0.9781859294
    5      C      -2.3935315364    -0.6444145889    -0.5449239093
    6      O      -1.6688107565     0.5531015687    -0.2723866109
    7      C      -0.1860478662     0.4576958835    -0.2225697507
    8      C       0.5288304766    -0.9340523982    -0.3762318606
    9      O       1.9722181428    -0.5770697261    -0.3686596848
   10      C       2.7814125519    -1.6311991406     0.1455868384
   11      C       4.3025580358    -1.2518973079     0.0384746952
   12      C       4.6799186735     0.1220492692    -0.6626566258
   13      C       3.5208384089     0.9071977618    -1.3747874331
   14      O       2.9751840272     1.9669900597    -0.9974390054
   15      O      -3.2806308352     2.3883100738     0.9340452605
   16      O       3.2774895397     0.2726956241    -2.6430591858
   17      O       2.3262495146    -2.6922292804     0.6253895096
   18      C       2.1783525607     0.9619896403    -3.3542435231
   19      C       4.8721729973    -0.9896318218     1.5023877623
   20      C       6.4515831223    -0.9865889607     1.4512899814
   21      C       6.7379430541     0.4309257722     0.8299746479
   22      C       5.2689473307     0.9402448868     0.5651445357
   23      O       4.5164344698     0.4280163348     1.7340159028
   24      H       4.8177629483    -2.1012081338    -0.4463378246
   25      H       5.4603144565    -0.0631556088    -1.4224691971
   26      H       4.4264868024    -1.6396180137     2.2806522478
   27      H       6.8691313447    -1.0777053892     2.4665306035
   28      H       6.8442021474    -1.8100223123     0.8335125296
   29      H       7.2502751122     1.0898806641     1.5490257300
   30      H       7.3360666999     0.3814379828    -0.0938866063
   31      H       5.1423561795     2.0367222082     0.4763566124
   32      O      -1.9487861105    -1.8095440045    -0.4845012634
   33      C      -2.4418252223     2.9276375953     2.0276159825
   34      C      -5.7595632287    -0.4991224312     0.5418174833
   35      C      -6.8824950882    -0.5135973334    -0.5677605969
   36      C      -6.1182151579    -1.2124133751    -1.7536963982
   37      C      -4.7330310070    -1.5499220756    -1.0742838142
   38      O      -5.0782627430    -1.7985250350     0.3455003067
   39      H      -5.1538622667     1.4533996578    -0.3648925266
   40      H      -3.7960292023     0.3215024655    -1.9314428068
   41      H      -1.5712800093     2.2718347653     2.2328223636
   42      H      -6.1132928576    -0.4020581559     1.5865260565
   43      H      -7.7421869300    -1.1165714732    -0.2344358814
   44      H      -7.2364137522     0.4979726956    -0.8228848883
   45      H      -6.6258020318    -2.1355601630    -2.0749770348
   46      H      -5.9985062471    -0.5535020738    -2.6286837948
   47      H      -4.1881216727    -2.4179663297    -1.4933564704
   48      H      -3.0200533492     3.0488572178     2.9665264644
   49      H      -2.0847801948     3.9148125398     1.6808575987
   50      H       1.2904761910     0.2993165887    -3.3969282676
   51      H       2.5112211780     1.1893010315    -4.3854047059
   52      H       1.9227092971     1.8983781262    -2.8176458194
   53      H       0.3047129190    -1.6358619756     0.4529276536
   54      H       0.2789176611    -1.4250178451    -1.3400206841
   55      H       0.1278121661     0.8955753273     0.7498023873
   56      H       0.1964170343     1.1282076853    -1.0234632976
 ----------------------------------------------------------------

    9   -1510.2704493235      2.11E-09 Convergence criterion met
 Total energy in the final basis set = -1510.27044932
 Final energy is   -1510.27044932355
 **  OPTIMIZATION CONVERGED  **

                    Orbital Energies (a.u.)
 --------------------------------------------------------------

 Alpha MOs
 -- Occupied --
-18.942 -18.939 -18.929 -18.925 -18.888 -18.884 -18.883 -18.878
-18.871 -18.867 -10.107 -10.106 -10.100 -10.095 -10.079 -10.077
-10.061 -10.060 -10.058 -10.057 -10.057 -10.056 -10.042 -10.039
-10.037 -10.035 -10.021 -10.020 -10.019 -10.018  -1.021  -1.015
 -1.005  -1.003  -0.971  -0.968  -0.945  -0.941  -0.931  -0.931
 -0.765  -0.762  -0.731  -0.722  -0.710  -0.705  -0.700  -0.660
 -0.659  -0.620  -0.598  -0.589  -0.545  -0.544  -0.538  -0.536
 -0.514  -0.509  -0.487  -0.472  -0.459  -0.459  -0.455  -0.447
 -0.441  -0.431  -0.429  -0.411  -0.410  -0.409  -0.408  -0.402
 -0.392  -0.381  -0.377  -0.369  -0.366  -0.363  -0.350  -0.347
 -0.344  -0.339  -0.337  -0.334  -0.331  -0.328  -0.324  -0.312
 -0.310  -0.308  -0.305  -0.302  -0.298  -0.297  -0.284  -0.275
 -0.271  -0.251  -0.247  -0.245  -0.241  -0.235  -0.232  -0.184
 -0.178  -0.172  -0.168  -0.160  -0.158  -0.151  -0.147  -0.146
 -0.142

          Ground-State Mulliken Net Atomic Charges

     Atom                 Charge (a.u.)
  ----------------------------------------
      1 O                    -0.213034
      2 C                     0.209593
      3 C                    -0.079737
      4 C                    -0.076122
      5 C                     0.212477
      6 O                    -0.172112
      7 C                    -0.049026
      8 C                    -0.047023
      9 O                    -0.172828
     10 C                     0.213707
     11 C                    -0.077096
     12 C                    -0.080661
     13 C                     0.222840
     14 O                    -0.223325
     15 O                    -0.167042
     16 O                    -0.175914
     17 O                    -0.211387
     18 C                    -0.136366
     19 C                     0.024955
     20 C                    -0.144344
     21 C                    -0.143520
     22 C                     0.024382
     23 O                    -0.190414
     24 H                     0.087593
     25 H                     0.084673
     26 H                     0.086409
     27 H                     0.078817
     28 H                     0.074112
     29 H                     0.078247
     30 H                     0.073315
     31 H                     0.088933
     32 O                    -0.208035
     33 C                    -0.127232
     34 C                     0.024495
     35 C                    -0.143068
     36 C                    -0.145194
     37 C                     0.023896
     38 O                    -0.187599
     39 H                     0.084865
     40 H                     0.084508
     41 H                     0.087460
     42 H                     0.087722
     43 H                     0.078104
     44 H                     0.072780
     45 H                     0.078247
     46 H                     0.072264
     47 H                     0.089168
     48 H                     0.088463
     49 H                     0.089842
     50 H                     0.079112
     51 H                     0.084446
     52 H                     0.098504
     53 H                     0.111012
     54 H                     0.091022
     55 H                     0.092670
     56 H                     0.092444
  ----------------------------------------
  Sum of atomic charges =     0.000000

                    Cartesian Multipole Moments
 -----------------------------------------------------------------
    Charge (ESU x 10^10)
                 0.0000
    Dipole Moment (Debye)
         X       0.8443      Y       1.8594      Z      -2.9756
       Tot       3.6090
    Quadrupole Moments (Debye-Ang)
        XX    -136.7263     XY      -8.6249     YY    -168.0656
        XZ       6.3020     YZ       3.4448     ZZ    -157.9042

 Total job time:  61.59s(wall), 2927.37s(cpu)
        *  Thank you very much for using Q-Chem.  Have a nice day.  *
