 Q-Chem 5.0, Q-Chem, Inc., Pleasanton, CA (2017)
 Q-Chem 5.0.1 for Intel X86 EM64T Linux

User input:
--------------------------------------------------------------
$molecule
0  1
O 4.5025666599 -0.624305759 -2.6304354763
C 4.1600368105 0.2592789764 -1.8146532735
C 4.8414917308 0.5814644508 -0.4357001505
C 3.9609376664 0.2897883178 0.8609150744
C 2.4826981789 -0.1939668626 0.6180880307
O 1.7449659183 0.9224692499 0.118654646
C 0.2665694453 0.8599088648 0.2597610776
C -0.4348463315 -0.5341056798 0.0847195694
O -1.8770594684 -0.3018383655 0.3610338613
C -2.6707748363 -1.2989422414 -0.2847730321
C -4.1726393527 -1.2327175258 0.1822113422
C -4.6992455242 0.1415560967 0.7714736615
C -3.6319555508 1.1963319157 1.23244016
O -3.3290821627 2.2735567848 0.6769852442
O 3.1210268116 1.2107885776 -2.0579854467
O -3.1914597478 0.8142552733 2.5456755824
O -2.2148396393 -2.1297136424 -1.1012217245
C -2.2995985347 1.8530048368 3.1031333155
C -5.0739555834 -1.3394720466 -1.1208835293
C -6.5872739342 -1.5496401411 -0.7207387265
C -7.0043175787 -0.0902448808 -0.3023076094
C -5.6183709575 0.6544661188 -0.420544057
O -5.022471362 0.0502529544 -1.6343749901
H -4.346895389 -2.0661678766 0.8876886688
H -5.3169822151 -0.0745070253 1.6619392715
H -4.6747174598 -2.0488619979 -1.8722753851
H -7.1693273009 -1.9066460215 -1.584911631
H -6.6981507794 -2.2754292397 0.1009912406
H -7.7310536989 0.3379670889 -1.0112447183
H -7.426559751 -0.0390077785 0.7139889796
H -5.6635967971 1.7565957382 -0.5183082728
O 2.0387341862 -1.3303564545 0.8945688248
C 2.4460251345 0.9090652686 -3.3414474782
C 6.0543737396 -0.4091361498 -0.19230345
C 6.9579826441 0.1626208452 0.9699370702
C 6.0780189981 -0.1694514362 2.2325528694
C 4.8224934071 -0.8454153635 1.5565312715
O 5.401102982 -1.59122883 0.4163808389
H 5.1587824849 1.6401503983 -0.4485223516
H 3.907323332 1.1999421799 1.4856385669
H 1.9409758453 -0.0782451258 -3.3126458688
H 6.5850521766 -0.6995199471 -1.1197312003
H 7.9252999114 -0.3632464231 1.0012898628
H 7.1468264825 1.2420512871 0.8547912753
H 6.5849116285 -0.8831769992 2.901157376
H 5.8071498124 0.7277134044 2.811961301
H 4.2309584108 -1.524469236 2.2008558084
H 3.1584358015 0.9145901609 -4.1914738722
H 1.6917002529 1.7047676526 -3.4824466679
H -1.9671797707 1.4766569017 4.0881830059
H -2.8303733621 2.8184175044 3.2362928007
H -1.4154245059 2.0304015415 2.458146612
H -0.3030965927 -0.9331291103 -0.9431260323
H -0.006872431 -1.2667006292 0.7997571409
H -0.1276069316 1.5732438444 -0.4934669944
H 0.0021150702 1.2500329809 1.2680970974
$end

$rem
JOBTYPE                   OPT
METHOD                    B3LYP
DFT_D                     d3_op
BASIS                     STO-3G
GEOM_OPT_MAX_CYCLES       100
GEOM_OPT_TOL_GRADIENT     300
GEOM_OPT_TOL_DISPLACEMENT 1200
GEOM_OPT_TOL_ENERGY       100
SYMMETRY                  False
THRESH                    12
SCF_CONVERGENCE           8
MAX_SUB_FILE_NUM          128
MEM_STATIC                400
MEM_TOTAL                 4000
$end
--------------------------------------------------------------

   16   -1510.2684163049      7.19E-09 Convergence criterion met
 Total energy in the final basis set = -1510.26841630
   14   -1510.2724247165      3.55E-09 Convergence criterion met
 Total energy in the final basis set = -1510.27242472
   14   -1510.2758255623      9.68E-09 Convergence criterion met
 Total energy in the final basis set = -1510.27582556
   14   -1510.2773407022      2.68E-09 Convergence criterion met
 Total energy in the final basis set = -1510.27734070
   14   -1510.2788410958      6.62E-09 Convergence criterion met
 Total energy in the final basis set = -1510.27884110
   14   -1510.2800740819      9.66E-09 Convergence criterion met
 Total energy in the final basis set = -1510.28007408
   14   -1510.2813328651      2.97E-09 Convergence criterion met
 Total energy in the final basis set = -1510.28133287
   14   -1510.2823298998      5.57E-09 Convergence criterion met
   12   -1510.2911433895      5.29E-09 Convergence criterion met
 Total energy in the final basis set = -1510.29114339
   12   -1510.2911767456      2.69E-09 Convergence criterion met
 Total energy in the final basis set = -1510.29117675
   11   -1510.2911837898      8.95E-09 Convergence criterion met
 Total energy in the final basis set = -1510.29118379
   11   -1510.2911885064      2.05E-09 Convergence criterion met
 Total energy in the final basis set = -1510.29118851
   11   -1510.2911866718      2.29E-09 Convergence criterion met
 Total energy in the final basis set = -1510.29118667
    9   -1510.2911887022      3.30E-09 Convergence criterion met
 Total energy in the final basis set = -1510.29118870

             Standard Nuclear Orientation (Angstroms)
    I     Atom           X                Y                Z
 ----------------------------------------------------------------
    1      O       4.0033767803    -2.2824162741     1.5405818126
    2      C       3.4782069792    -1.6455998721     0.6026496283
    3      C       4.2109229083    -0.7388304773    -0.4508155114
    4      C       3.6093413249     0.7186075010    -0.6322925369
    5      C       2.4080557291     1.0427083128     0.3181114521
    6      O       1.2548165098     1.2895112590    -0.4967358069
    7      C       0.0960713520     1.6888117182     0.3377598093
    8      C      -0.3588017121     0.5620720257     1.3468265496
    9      O      -1.8394234438     0.4229783934     1.3059607502
   10      C      -2.2257288261    -0.8028043460     0.6857017153
   11      C      -3.7851829347    -0.8242960087     0.4957598395
   12      C      -4.4209790222     0.5214514551    -0.0597072793
   13      C      -3.4105364997     1.7100605851    -0.2018444445
   14      O      -2.5257871915     1.8652161855    -1.0762855435
   15      O       2.0836134001    -1.6793664182     0.2836515728
   16      O      -3.7236904960     2.6669960384     0.8151763833
   17      O      -1.4401414519    -1.7257019517     0.3708855618
   18      C      -2.7965006496     3.8201856471     0.7585843315
   19      C      -4.1593672782    -1.8366729356    -0.6641446643
   20      C      -5.7097092575    -2.1286037429    -0.6124011365
   21      C      -6.2917479039    -0.7974212007    -1.2196269834
   22      C      -4.9672936689     0.0247021548    -1.4702769547
   23      O      -3.9925272806    -1.0093342317    -1.8819793311
   24      H      -4.2485201869    -1.1048930035     1.4600766335
   25      H      -5.2408440305     0.8590779363     0.5977188374
   26      H      -3.4969380815    -2.7231846238    -0.7037268916
   27      H      -5.9594983837    -3.0014488107    -1.2361829213
   28      H      -6.0607346838    -2.3164059893     0.4149042619
   29      H      -6.8124784842    -0.9831084809    -2.1725840999
   30      H      -6.9814462855    -0.2798646338    -0.5340185270
   31      H      -5.0376371458     0.8176730081    -2.2398776591
   32      O       2.4158575086     1.1229415317     1.5658129075
   33      C       1.3719156659    -2.6324710058     1.1712988746
   34      C       5.6887202516    -0.4093093584     0.0139995865
   35      C       6.5113059615     0.0752794280    -1.2421347575
   36      C       5.9114687402     1.5147932168    -1.4571167782
   37      C       4.8807329966     1.5997675002    -0.2616586897
   38      O       5.5284130944     0.8243696952     0.8187880418
   39      H       4.2005494886    -1.2768396821    -1.4170713357
   40      H       3.2762648832     0.8871705066    -1.6711372489
   41      H       1.5544238222    -2.4022196889     2.2401715900
   42      H       6.1523069887    -1.2106958869     0.6217020472
   43      H       7.5864739435     0.1177026035    -1.0060459018
   44      H       6.3662300710    -0.5821271924    -2.1142582064
   45      H       6.6835909419     2.2940263530    -1.3566174555
   46      H       5.4192837064     1.6288381354    -2.4359769255
   47      H       4.6430584238     2.6240583397     0.0851978830
   48      H       1.6938767631    -3.6752116022     0.9754296824
   49      H       0.2951443078    -2.5108864158     0.9285387074
   50      H      -3.3783231242     4.7263900444     1.0114062666
   51      H      -2.3536700535     3.9135692112    -0.2529509590
   52      H      -1.9823053743     3.6892240324     1.4999528995
   53      H       0.1003233758    -0.4019174072     1.0511466494
   54      H      -0.0723430502     0.8098865758     2.3878871587
   55      H      -0.7400619843     1.8744861614    -0.3775515700
   56      H       0.3231709183     2.6243981931     0.8913676928
 ----------------------------------------------------------------

    9   -1510.2911883296      4.78E-09 Convergence criterion met
 Total energy in the final basis set = -1510.29118833
 Final energy is   -1510.29118832964
 **  OPTIMIZATION CONVERGED  **

                    Orbital Energies (a.u.)
 --------------------------------------------------------------

 Alpha MOs
 -- Occupied --
-18.945 -18.941 -18.927 -18.926 -18.892 -18.891 -18.882 -18.879
-18.869 -18.865 -10.113 -10.108 -10.092 -10.092 -10.066 -10.065
-10.064 -10.062 -10.058 -10.056 -10.052 -10.046 -10.045 -10.043
-10.032 -10.031 -10.024 -10.023 -10.016 -10.015  -1.025  -1.014
 -1.006  -1.000  -0.974  -0.965  -0.949  -0.941  -0.929  -0.928
 -0.769  -0.758  -0.730  -0.719  -0.711  -0.704  -0.693  -0.668
 -0.652  -0.617  -0.599  -0.582  -0.549  -0.542  -0.539  -0.532
 -0.516  -0.505  -0.485  -0.468  -0.464  -0.459  -0.453  -0.446
 -0.435  -0.434  -0.426  -0.421  -0.416  -0.413  -0.402  -0.398
 -0.392  -0.384  -0.376  -0.369  -0.360  -0.356  -0.354  -0.350
 -0.345  -0.338  -0.335  -0.330  -0.326  -0.325  -0.322  -0.314
 -0.308  -0.307  -0.302  -0.300  -0.294  -0.289  -0.281  -0.276
 -0.269  -0.256  -0.253  -0.245  -0.242  -0.238  -0.229  -0.191
 -0.180  -0.171  -0.170  -0.165  -0.159  -0.150  -0.148  -0.143
 -0.138

          Ground-State Mulliken Net Atomic Charges

     Atom                 Charge (a.u.)
  ----------------------------------------
      1 O                    -0.211212
      2 C                     0.210887
      3 C                    -0.078434
      4 C                    -0.079102
      5 C                     0.209004
      6 O                    -0.168275
      7 C                    -0.062126
      8 C                    -0.059615
      9 O                    -0.173113
     10 C                     0.220030
     11 C                    -0.077199
     12 C                    -0.079728
     13 C                     0.220457
     14 O                    -0.221743
     15 O                    -0.174153
     16 O                    -0.166169
     17 O                    -0.210589
     18 C                    -0.133393
     19 C                     0.024297
     20 C                    -0.144434
     21 C                    -0.143453
     22 C                     0.025877
     23 O                    -0.186629
     24 H                     0.087436
     25 H                     0.087644
     26 H                     0.091906
     27 H                     0.079489
     28 H                     0.073682
     29 H                     0.079115
     30 H                     0.074054
     31 H                     0.085333
     32 O                    -0.218712
     33 C                    -0.142469
     34 C                     0.023886
     35 C                    -0.143979
     36 C                    -0.144134
     37 C                     0.025804
     38 O                    -0.187104
     39 H                     0.084467
     40 H                     0.087086
     41 H                     0.086062
     42 H                     0.090592
     43 H                     0.077550
     44 H                     0.072838
     45 H                     0.077138
     46 H                     0.073412
     47 H                     0.081974
     48 H                     0.082141
     49 H                     0.108773
     50 H                     0.089573
     51 H                     0.098091
     52 H                     0.085840
     53 H                     0.108098
     54 H                     0.094372
     55 H                     0.110471
     56 H                     0.078385
  ----------------------------------------
  Sum of atomic charges =     0.000000

                    Cartesian Multipole Moments
 -----------------------------------------------------------------
    Charge (ESU x 10^10)
                 0.0000
    Dipole Moment (Debye)
         X      -3.3380      Y       1.0379      Z      -0.7694
       Tot       3.5793
    Quadrupole Moments (Debye-Ang)
        XX    -146.0822     XY       2.1649     YY    -152.1408
        XZ     -16.8299     YZ      -0.3981     ZZ    -166.4758

 Total job time:  115.45s(wall), 5497.73s(cpu)
        *  Thank you very much for using Q-Chem.  Have a nice day.  *
