 Q-Chem 5.0, Q-Chem, Inc., Pleasanton, CA (2017)
 Q-Chem 5.0.1 for Intel X86 EM64T Linux

User input:
--------------------------------------------------------------
$molecule
0  1
O -3.94934 -3.66094 2.70899
C -3.26408 -4.56952 2.26188
C -3.36658 -6.02376 2.66595
C -2.16423 -6.6342 3.40457
C -1.06713 -5.67664 3.81389
O -0.38525 -5.25262 2.70905
C 0.91774 -4.74335 3.01254
C 0.89252 -3.9922 4.33966
O 2.21711 -3.55198 4.67811
C 2.28152 -2.48228 5.50921
C 3.67931 -2.2119 6.01294
C 4.8049 -2.76961 5.1296
C 4.40111 -3.18683 3.72975
O 4.68905 -2.59107 2.70178
O -2.36368 -4.28235 1.28587
O 4.20122 -4.53141 3.60253
O 1.29942 -1.95218 6.01481
C 4.2681 -5.22531 2.40953
C 4.04473 -0.71031 6.00775
C 5.14375 -0.4536 7.03682
C 6.31763 -1.13947 6.3691
C 5.68541 -1.50733 5.02026
O 4.72841 -0.50198 4.7983
H 3.71628 -2.57167 7.06596
H 5.34691 -3.61753 5.60479
H 3.17848 -0.04012 6.19949
H 5.32717 0.64517 7.03867
H 4.92829 -0.78695 8.07474
H 7.13422 -0.39419 6.24473
H 6.69906 -2.04409 6.89053
H 6.4747 -1.60988 4.24288
O -1.43424 -4.88983 4.68208
C -2.12408 -3.01611 0.79493
C -4.47881 -6.28876 3.70723
C -4.91663 -7.75261 3.64431
C -3.71812 -8.43397 4.27083
C -2.87179 -7.21388 4.64623
O -3.82478 -6.22428 4.95022
H -3.61771 -6.58062 1.73537
H -1.67448 -7.43701 2.80884
H -1.76387 -2.35298 1.61049
H -5.36449 -5.62793 3.58425
H -5.78614 -7.86864 4.33049
H -5.19735 -8.11755 2.63295
H -4.05517 -8.96432 5.18925
H -3.16898 -9.13631 3.60708
H -2.15417 -7.47027 5.45667
H -3.05065 -2.59606 0.34856
H -1.34218 -3.07278 0.01018
H 4.04645 -6.29584 2.59713
H 5.28946 -5.14449 1.98027
H 3.53225 -4.82348 1.68227
H 0.19456 -3.12929 4.22156
H 0.66173 -4.63962 5.2118
H 1.25342 -4.07969 2.18838
H 1.61712 -5.60007 3.10438
$end

$opt
CONSTRAINT
tors           1           2           3           4    -113.839
tors           3           4           5           6     -71.084
tors           4           5           6           7    -159.342
tors           5           6           7           8     -36.383
tors           6           7           8           9    +176.597
tors           7           8           9          10    +155.837
tors           8           9          10          11    +170.278
tors           9          10          11          12     +23.067
tors          11          12          13          14    +107.996
ENDCONSTRAINT
$end

$rem
JOBTYPE                   OPT
METHOD                    B3LYP
DFT_D                     d3_op
BASIS                     STO-3G
GEOM_OPT_MAX_CYCLES       100
GEOM_OPT_TOL_GRADIENT     300
GEOM_OPT_TOL_DISPLACEMENT 1200
GEOM_OPT_TOL_ENERGY       100
SYMMETRY                  False
THRESH                    12
SCF_CONVERGENCE           8
MAX_SUB_FILE_NUM          128
MEM_STATIC                400
MEM_TOTAL                 4000
$end
--------------------------------------------------------------

   16   -1510.0882858731      3.47E-09 Convergence criterion met
 Total energy in the final basis set = -1510.08828587
   14   -1510.1651125584      3.38E-09 Convergence criterion met
 Total energy in the final basis set = -1510.16511256
   15   -1510.2080073947      1.75E-09 Convergence criterion met
 Total energy in the final basis set = -1510.20800739
   15   -1510.2326701433      1.72E-09 Convergence criterion met
 Total energy in the final basis set = -1510.23267014
   14   -1510.2455423550      9.64E-09 Convergence criterion met
 Total energy in the final basis set = -1510.24554236
   14   -1510.2536552176      4.83E-09 Convergence criterion met
 Total energy in the final basis set = -1510.25365522
   13   -1510.2588736111      8.26E-09 Convergence criterion met
 Total energy in the final basis set = -1510.25887361
   13   -1510.2624633839      4.07E-09 Convergence criterion met
   11   -1510.2688386967      8.43E-09 Convergence criterion met
 Total energy in the final basis set = -1510.26883870
   11   -1510.2688481087      2.87E-09 Convergence criterion met
 Total energy in the final basis set = -1510.26884811
    9   -1510.2688566379      8.40E-09 Convergence criterion met
 Total energy in the final basis set = -1510.26885664
   10   -1510.2688657780      9.16E-09 Convergence criterion met
 Total energy in the final basis set = -1510.26886578
    9   -1510.2688731945      6.88E-09 Convergence criterion met
 Total energy in the final basis set = -1510.26887319
    9   -1510.2688785335      9.32E-09 Convergence criterion met
 Total energy in the final basis set = -1510.26887853

             Standard Nuclear Orientation (Angstroms)
    I     Atom           X                Y                Z
 ----------------------------------------------------------------
    1      O       4.5025666599    -0.6243057590    -2.6304354763
    2      C       4.1600368105     0.2592789764    -1.8146532735
    3      C       4.8414917308     0.5814644508    -0.4357001505
    4      C       3.9609376664     0.2897883178     0.8609150744
    5      C       2.4826981789    -0.1939668626     0.6180880307
    6      O       1.7449659183     0.9224692499     0.1186546460
    7      C       0.2665694453     0.8599088648     0.2597610776
    8      C      -0.4348463315    -0.5341056798     0.0847195694
    9      O      -1.8770594684    -0.3018383655     0.3610338613
   10      C      -2.6707748363    -1.2989422414    -0.2847730321
   11      C      -4.1726393527    -1.2327175258     0.1822113422
   12      C      -4.6992455242     0.1415560967     0.7714736615
   13      C      -3.6319555508     1.1963319157     1.2324401600
   14      O      -3.3290821627     2.2735567848     0.6769852442
   15      O       3.1210268116     1.2107885776    -2.0579854467
   16      O      -3.1914597478     0.8142552733     2.5456755824
   17      O      -2.2148396393    -2.1297136424    -1.1012217245
   18      C      -2.2995985347     1.8530048368     3.1031333155
   19      C      -5.0739555834    -1.3394720466    -1.1208835293
   20      C      -6.5872739342    -1.5496401411    -0.7207387265
   21      C      -7.0043175787    -0.0902448808    -0.3023076094
   22      C      -5.6183709575     0.6544661188    -0.4205440570
   23      O      -5.0224713620     0.0502529544    -1.6343749901
   24      H      -4.3468953890    -2.0661678766     0.8876886688
   25      H      -5.3169822151    -0.0745070253     1.6619392715
   26      H      -4.6747174598    -2.0488619979    -1.8722753851
   27      H      -7.1693273009    -1.9066460215    -1.5849116310
   28      H      -6.6981507794    -2.2754292397     0.1009912406
   29      H      -7.7310536989     0.3379670889    -1.0112447183
   30      H      -7.4265597510    -0.0390077785     0.7139889796
   31      H      -5.6635967971     1.7565957382    -0.5183082728
   32      O       2.0387341862    -1.3303564545     0.8945688248
   33      C       2.4460251345     0.9090652686    -3.3414474782
   34      C       6.0543737396    -0.4091361498    -0.1923034500
   35      C       6.9579826441     0.1626208452     0.9699370702
   36      C       6.0780189981    -0.1694514362     2.2325528694
   37      C       4.8224934071    -0.8454153635     1.5565312715
   38      O       5.4011029820    -1.5912288300     0.4163808389
   39      H       5.1587824849     1.6401503983    -0.4485223516
   40      H       3.9073233320     1.1999421799     1.4856385669
   41      H       1.9409758453    -0.0782451258    -3.3126458688
   42      H       6.5850521766    -0.6995199471    -1.1197312003
   43      H       7.9252999114    -0.3632464231     1.0012898628
   44      H       7.1468264825     1.2420512871     0.8547912753
   45      H       6.5849116285    -0.8831769992     2.9011573760
   46      H       5.8071498124     0.7277134044     2.8119613010
   47      H       4.2309584108    -1.5244692360     2.2008558084
   48      H       3.1584358015     0.9145901609    -4.1914738722
   49      H       1.6917002529     1.7047676526    -3.4824466679
   50      H      -1.9671797707     1.4766569017     4.0881830059
   51      H      -2.8303733621     2.8184175044     3.2362928007
   52      H      -1.4154245059     2.0304015415     2.4581466120
   53      H      -0.3030965927    -0.9331291103    -0.9431260323
   54      H      -0.0068724310    -1.2667006292     0.7997571409
   55      H      -0.1276069316     1.5732438444    -0.4934669944
   56      H       0.0021150702     1.2500329809     1.2680970974
 ----------------------------------------------------------------

    9   -1510.2688795228      5.40E-09 Convergence criterion met
 Total energy in the final basis set = -1510.26887952
 Final energy is   -1510.26887952276
 **  OPTIMIZATION CONVERGED  **

                    Orbital Energies (a.u.)
 --------------------------------------------------------------

 Alpha MOs
 -- Occupied --
-18.941 -18.941 -18.934 -18.927 -18.886 -18.885 -18.885 -18.877
-18.874 -18.868 -10.109 -10.103 -10.098 -10.097 -10.079 -10.068
-10.063 -10.063 -10.058 -10.057 -10.057 -10.056 -10.041 -10.039
-10.038 -10.035 -10.020 -10.020 -10.019 -10.019  -1.019  -1.015
 -1.008  -1.004  -0.969  -0.968  -0.947  -0.940  -0.934  -0.931
 -0.764  -0.762  -0.729  -0.722  -0.711  -0.704  -0.699  -0.662
 -0.662  -0.619  -0.598  -0.589  -0.545  -0.544  -0.538  -0.537
 -0.513  -0.509  -0.487  -0.470  -0.462  -0.458  -0.458  -0.444
 -0.441  -0.430  -0.428  -0.413  -0.412  -0.410  -0.407  -0.400
 -0.394  -0.381  -0.379  -0.371  -0.369  -0.357  -0.351  -0.348
 -0.344  -0.340  -0.336  -0.333  -0.330  -0.330  -0.325  -0.312
 -0.311  -0.307  -0.305  -0.299  -0.297  -0.292  -0.284  -0.275
 -0.271  -0.256  -0.251  -0.245  -0.241  -0.234  -0.232  -0.186
 -0.185  -0.172  -0.169  -0.159  -0.158  -0.148  -0.147  -0.144
 -0.143

          Ground-State Mulliken Net Atomic Charges

     Atom                 Charge (a.u.)
  ----------------------------------------
      1 O                    -0.210670
      2 C                     0.206003
      3 C                    -0.077647
      4 C                    -0.077651
      5 C                     0.211609
      6 O                    -0.165093
      7 C                    -0.047797
      8 C                    -0.058446
      9 O                    -0.172143
     10 C                     0.213593
     11 C                    -0.076231
     12 C                    -0.081853
     13 C                     0.218112
     14 O                    -0.219204
     15 O                    -0.164970
     16 O                    -0.172451
     17 O                    -0.212348
     18 C                    -0.127277
     19 C                     0.024056
     20 C                    -0.145272
     21 C                    -0.142716
     22 C                     0.023590
     23 O                    -0.191569
     24 H                     0.087180
     25 H                     0.084097
     26 H                     0.089369
     27 H                     0.078593
     28 H                     0.073399
     29 H                     0.077926
     30 H                     0.072867
     31 H                     0.088206
     32 O                    -0.208171
     33 C                    -0.128243
     34 C                     0.024404
     35 C                    -0.144530
     36 C                    -0.143963
     37 C                     0.023696
     38 O                    -0.187664
     39 H                     0.085476
     40 H                     0.084192
     41 H                     0.088526
     42 H                     0.089838
     43 H                     0.078341
     44 H                     0.072609
     45 H                     0.078234
     46 H                     0.072074
     47 H                     0.088491
     48 H                     0.089992
     49 H                     0.090946
     50 H                     0.088306
     51 H                     0.086265
     52 H                     0.083143
     53 H                     0.097191
     54 H                     0.107441
     55 H                     0.096911
     56 H                     0.081235
  ----------------------------------------
  Sum of atomic charges =     0.000000

                    Cartesian Multipole Moments
 -----------------------------------------------------------------
    Charge (ESU x 10^10)
                 0.0000
    Dipole Moment (Debye)
         X      -0.7253      Y       2.1496      Z       2.7527
       Tot       3.5671
    Quadrupole Moments (Debye-Ang)
        XX    -143.8655     XY      15.6153     YY    -167.7414
        XZ       0.2367     YZ      -0.4631     ZZ    -155.6872

 Total job time:  80.40s(wall), 3826.55s(cpu)
        *  Thank you very much for using Q-Chem.  Have a nice day.  *
