 Q-Chem 5.0, Q-Chem, Inc., Pleasanton, CA (2017)
 Q-Chem 5.0.1 for Intel X86 EM64T Linux

User input:
--------------------------------------------------------------
$molecule
0  1
O -3.94934 -3.66094 2.70899
C -3.26408 -4.56952 2.26188
C -3.36658 -6.02376 2.66595
C -2.44047 -6.50644 3.79431
C -1.64206 -5.44176 4.5134
O -0.92416 -4.71084 3.61017
C 0.03343 -3.84127 4.22345
C -0.53991 -3.24986 5.50705
O 0.42598 -2.38124 6.11978
C -0.08645 -1.31508 6.783
C 0.9704 -0.49385 7.4825
C 2.39634 -1.05554 7.38506
C 2.61508 -2.12434 6.33314
O 3.05454 -1.93261 5.20856
O -2.29271 -4.27142 1.35875
O 2.68383 -3.38853 6.84455
O -1.27266 -1.01063 6.80355
C 3.10464 -4.52585 6.18138
C 1.15585 0.91347 6.89172
C 1.75393 1.83506 7.95265
C 3.16093 1.27979 8.04746
C 3.1192 0.23176 6.92795
O 2.22213 0.77302 5.9873
H 0.64557 -0.41786 8.5449
H 2.79752 -1.4253 8.35529
H 0.21768 1.34764 6.48234
H 1.80279 2.85434 7.50641
H 1.19778 1.883 8.91356
H 3.87604 2.09516 7.79888
H 3.42749 0.8221 9.02468
H 4.14809 0.026 6.55775
O -1.13428 -5.83913 5.55788
C -2.02657 -2.99994 0.8954
C -4.74218 -6.32544 3.3069
C -5.06232 -7.81467 3.19021
C -4.0917 -8.38756 4.19732
C -3.48934 -7.0972 4.76318
O -4.53671 -6.16529 4.687
H -3.30365 -6.62718 1.73254
H -1.71648 -7.27473 3.44068
H -1.73594 -2.33843 1.73957
H -5.57279 -5.7313 2.86557
H -6.09744 -7.95804 3.57569
H -4.99189 -8.23915 2.16569
H -4.67392 -8.9235 4.97981
H -3.31062 -9.05819 3.77813
H -3.08916 -7.29221 5.7818
H -2.92021 -2.58451 0.38251
H -1.18701 -3.0449 0.1719
H 2.29491 -5.28342 6.20813
H 3.98981 -4.94238 6.70438
H 3.3796 -4.32879 5.12351
H -1.43593 -2.68374 5.16161
H -0.88744 -3.86607 6.35031
H 0.31605 -3.04068 3.50739
H 0.94217 -4.42566 4.46367
$end

$opt
CONSTRAINT
tors           1           2           3           4     -93.007
tors           3           4           5           6     -54.557
tors           4           5           6           7    -169.659
tors           5           6           7           8     -37.771
tors           6           7           8           9    +179.851
tors           7           8           9          10    +147.013
tors           8           9          10          11    +176.104
tors           9          10          11          12      -3.437
tors          11          12          13          14     +96.421
ENDCONSTRAINT
$end

$rem
JOBTYPE                   OPT
METHOD                    B3LYP
DFT_D                     d3_op
BASIS                     STO-3G
GEOM_OPT_MAX_CYCLES       100
GEOM_OPT_TOL_GRADIENT     300
GEOM_OPT_TOL_DISPLACEMENT 1200
GEOM_OPT_TOL_ENERGY       100
SYMMETRY                  False
THRESH                    12
SCF_CONVERGENCE           8
MAX_SUB_FILE_NUM          128
MEM_STATIC                400
MEM_TOTAL                 4000
$end
--------------------------------------------------------------

   15   -1510.1119906562      8.59E-09 Convergence criterion met
 Total energy in the final basis set = -1510.11199066
   15   -1510.1861289696      1.54E-09 Convergence criterion met
 Total energy in the final basis set = -1510.18612897
   15   -1510.2267561733      1.60E-09 Convergence criterion met
 Total energy in the final basis set = -1510.22675617
   15   -1510.2502240654      1.33E-09 Convergence criterion met
 Total energy in the final basis set = -1510.25022407
   14   -1510.2621486186      5.31E-09 Convergence criterion met
 Total energy in the final basis set = -1510.26214862
   13   -1510.2685996414      6.54E-09 Convergence criterion met
 Total energy in the final basis set = -1510.26859964
   13   -1510.2723483911      5.48E-09 Convergence criterion met
 Total energy in the final basis set = -1510.27234839
   13   -1510.2743946222      3.37E-09 Convergence criterion met
   12   -1510.2758416548      2.65E-09 Convergence criterion met
 Total energy in the final basis set = -1510.27584165
   11   -1510.2758776033      6.67E-09 Convergence criterion met
 Total energy in the final basis set = -1510.27587760
   10   -1510.2758919023      9.38E-09 Convergence criterion met
 Total energy in the final basis set = -1510.27589190
   10   -1510.2759034340      8.64E-09 Convergence criterion met
 Total energy in the final basis set = -1510.27590343
    9   -1510.2759098935      6.12E-09 Convergence criterion met
 Total energy in the final basis set = -1510.27590989
    9   -1510.2759113689      7.01E-09 Convergence criterion met
 Total energy in the final basis set = -1510.27591137

             Standard Nuclear Orientation (Angstroms)
    I     Atom           X                Y                Z
 ----------------------------------------------------------------
    1      O      -3.2300259097     2.3961017141     0.4391501489
    2      C      -3.5850189613     1.6773148389    -0.5194570552
    3      C      -4.6116116688     0.4919444349    -0.5047835790
    4      C      -3.9707708136    -0.9448606430    -0.2774580468
    5      C      -2.4571550607    -0.9366637977     0.1619821587
    6      O      -1.7347997620    -0.1759098880    -0.8052152007
    7      C      -0.2526937831    -0.2389568841    -0.7130564549
    8      C       0.3896533865    -0.2745632461     0.7214800967
    9      O       1.8506854964    -0.3384826835     0.4825042815
   10      C       2.5913457941     0.3424294135     1.4910276362
   11      C       4.1342595899     0.1661686532     1.2539191277
   12      C       4.6225082659    -0.7571025047     0.0553715505
   13      C       3.5120315292    -1.4450594204    -0.8181036051
   14      O       3.0435332268    -1.0478903680    -1.9072170011
   15      O      -3.1902874872     1.8992992289    -1.8800608236
   16      O       3.1858811670    -2.7026781329    -0.2017275770
   17      O       2.0698589558     0.9974838212     2.4199771991
   18      C       2.1153579075    -3.3819482388    -0.9648811720
   19      C       4.7821924198     1.5607253551     0.8349744265
   20      C       6.3390130664     1.4950134234     1.0918205324
   21      C       6.8074633355     0.5915323999    -0.1084533710
   22      C       5.4299709993     0.2949515955    -0.8185966722
   23      O       4.6670828291     1.5522431236    -0.6397343615
   24      H       4.5608720523    -0.1877306285     2.2105219335
   25      H       5.2791388124    -1.5552378188     0.4454475563
   26      H       4.2686016852     2.4426293253     1.2654821591
   27      H       6.7792320794     2.5032723282     1.0365562443
   28      H       6.5786687252     1.0580515229     2.0742864705
   29      H       7.4817249622     1.1383387600    -0.7866175292
   30      H       7.3111315530    -0.3304092962     0.2231239716
   31      H       5.4907047584     0.0340644653    -1.8927664116
   32      O      -1.9782621674    -1.5658841612     1.1303820504
   33      C      -2.2080752824     3.0043721929    -1.9458521107
   34      C      -5.6305453062     0.5609641293     0.7119808817
   35      C      -6.9000475260    -0.2925891324     0.3219070443
   36      C      -6.3193880212    -1.7527872104     0.4238969069
   37      C      -4.8505588931    -1.4676664900     0.9300254040
   38      O      -4.9881354079    -0.2532071592     1.7683033515
   39      H      -5.1451501123     0.5105580137    -1.4716485533
   40      H      -4.0640835900    -1.5707767803    -1.1841070472
   41      H      -1.2999069366     2.7793125072    -1.3505718989
   42      H      -5.8339207635     1.5843346142     1.0822789870
   43      H      -7.7098329857    -0.1302903522     1.0509372199
   44      H      -7.2756403171    -0.0498940725    -0.6850160071
   45      H      -6.8713182205    -2.3579657020     1.1603527682
   46      H      -6.3267823375    -2.2813527916    -0.5429248766
   47      H      -4.3703656693    -2.2815984098     1.5072899012
   48      H      -2.6395038994     3.9584044981    -1.5789911220
   49      H      -1.9341266322     3.1078848363    -3.0118623525
   50      H       1.1979403072    -3.4344186998    -0.3447383911
   51      H       2.4478030442    -4.4094732650    -1.2096145534
   52      H       1.9114574319    -2.8135697081    -1.8954129992
   53      H       0.1381155692     0.6305222105     1.3146570128
   54      H       0.0361201184    -1.1715789902     1.2704318667
   55      H       0.1093066587     0.6565732467    -1.2582769072
   56      H       0.0972968102    -1.1374313691    -1.2685923056
 ----------------------------------------------------------------

    9   -1510.2759120175      5.06E-09 Convergence criterion met
 Total energy in the final basis set = -1510.27591202
 Final energy is   -1510.27591201752
 **  OPTIMIZATION CONVERGED  **

                    Orbital Energies (a.u.)
 --------------------------------------------------------------

 Alpha MOs
 -- Occupied --
-18.945 -18.942 -18.929 -18.924 -18.888 -18.887 -18.885 -18.877
-18.869 -18.865 -10.110 -10.105 -10.098 -10.095 -10.079 -10.069
-10.061 -10.060 -10.058 -10.058 -10.057 -10.055 -10.041 -10.040
-10.036 -10.035 -10.021 -10.020 -10.020 -10.019  -1.021  -1.017
 -1.004  -1.002  -0.971  -0.969  -0.948  -0.941  -0.931  -0.929
 -0.764  -0.762  -0.730  -0.722  -0.710  -0.705  -0.699  -0.660
 -0.659  -0.620  -0.597  -0.589  -0.545  -0.544  -0.538  -0.537
 -0.514  -0.510  -0.488  -0.472  -0.459  -0.458  -0.457  -0.443
 -0.441  -0.430  -0.430  -0.411  -0.410  -0.408  -0.406  -0.402
 -0.393  -0.383  -0.379  -0.368  -0.367  -0.356  -0.353  -0.347
 -0.346  -0.339  -0.335  -0.333  -0.332  -0.329  -0.325  -0.312
 -0.311  -0.307  -0.305  -0.301  -0.297  -0.295  -0.285  -0.275
 -0.271  -0.252  -0.249  -0.244  -0.239  -0.235  -0.233  -0.189
 -0.181  -0.172  -0.166  -0.159  -0.158  -0.149  -0.147  -0.146
 -0.143

          Ground-State Mulliken Net Atomic Charges

     Atom                 Charge (a.u.)
  ----------------------------------------
      1 O                    -0.215242
      2 C                     0.210653
      3 C                    -0.080159
      4 C                    -0.076303
      5 C                     0.215377
      6 O                    -0.169295
      7 C                    -0.048020
      8 C                    -0.058365
      9 O                    -0.172047
     10 C                     0.213376
     11 C                    -0.077676
     12 C                    -0.080342
     13 C                     0.222212
     14 O                    -0.222375
     15 O                    -0.168077
     16 O                    -0.174603
     17 O                    -0.212462
     18 C                    -0.136729
     19 C                     0.025065
     20 C                    -0.143737
     21 C                    -0.144352
     22 C                     0.025381
     23 O                    -0.189160
     24 H                     0.087308
     25 H                     0.085136
     26 H                     0.086142
     27 H                     0.078663
     28 H                     0.074305
     29 H                     0.078144
     30 H                     0.073528
     31 H                     0.087257
     32 O                    -0.209540
     33 C                    -0.127499
     34 C                     0.024690
     35 C                    -0.143150
     36 C                    -0.144927
     37 C                     0.023583
     38 O                    -0.188145
     39 H                     0.085272
     40 H                     0.085837
     41 H                     0.086802
     42 H                     0.087072
     43 H                     0.078202
     44 H                     0.073110
     45 H                     0.078336
     46 H                     0.072593
     47 H                     0.089746
     48 H                     0.087765
     49 H                     0.089597
     50 H                     0.081701
     51 H                     0.083859
     52 H                     0.097939
     53 H                     0.100701
     54 H                     0.108055
     55 H                     0.095826
     56 H                     0.088974
  ----------------------------------------
  Sum of atomic charges =     0.000000

                    Cartesian Multipole Moments
 -----------------------------------------------------------------
    Charge (ESU x 10^10)
                 0.0000
    Dipole Moment (Debye)
         X       0.3232      Y      -1.6515      Z      -1.9432
       Tot       2.5706
    Quadrupole Moments (Debye-Ang)
        XX    -135.1989     XY       1.4990     YY    -155.9827
        XZ      12.0926     YZ      -0.7017     ZZ    -169.5457

 Total job time:  56.00s(wall), 2661.50s(cpu)
        *  Thank you very much for using Q-Chem.  Have a nice day.  *
