 Q-Chem 5.0, Q-Chem, Inc., Pleasanton, CA (2017)
 Q-Chem 5.0.1 for Intel X86 EM64T Linux

User input:
--------------------------------------------------------------
$molecule
0  1
O -3.2300259097 2.3961017141 0.4391501489
C -3.5850189613 1.6773148389 -0.5194570552
C -4.6116116688 0.4919444349 -0.504783579
C -3.9707708136 -0.944860643 -0.2774580468
C -2.4571550607 -0.9366637977 0.1619821587
O -1.734799762 -0.175909888 -0.8052152007
C -0.2526937831 -0.2389568841 -0.7130564549
C 0.3896533865 -0.2745632461 0.7214800967
O 1.8506854964 -0.3384826835 0.4825042815
C 2.5913457941 0.3424294135 1.4910276362
C 4.1342595899 0.1661686532 1.2539191277
C 4.6225082659 -0.7571025047 0.0553715505
C 3.5120315292 -1.4450594204 -0.8181036051
O 3.0435332268 -1.047890368 -1.9072170011
O -3.1902874872 1.8992992289 -1.8800608236
O 3.185881167 -2.7026781329 -0.201727577
O 2.0698589558 0.9974838212 2.4199771991
C 2.1153579075 -3.3819482388 -0.964881172
C 4.7821924198 1.5607253551 0.8349744265
C 6.3390130664 1.4950134234 1.0918205324
C 6.8074633355 0.5915323999 -0.108453371
C 5.4299709993 0.2949515955 -0.8185966722
O 4.6670828291 1.5522431236 -0.6397343615
H 4.5608720523 -0.1877306285 2.2105219335
H 5.2791388124 -1.5552378188 0.4454475563
H 4.2686016852 2.4426293253 1.2654821591
H 6.7792320794 2.5032723282 1.0365562443
H 6.5786687252 1.0580515229 2.0742864705
H 7.4817249622 1.13833876 -0.7866175292
H 7.311131553 -0.3304092962 0.2231239716
H 5.4907047584 0.0340644653 -1.8927664116
O -1.9782621674 -1.5658841612 1.1303820504
C -2.2080752824 3.0043721929 -1.9458521107
C -5.6305453062 0.5609641293 0.7119808817
C -6.900047526 -0.2925891324 0.3219070443
C -6.3193880212 -1.7527872104 0.4238969069
C -4.8505588931 -1.46766649 0.930025404
O -4.9881354079 -0.2532071592 1.7683033515
H -5.1451501123 0.5105580137 -1.4716485533
H -4.06408359 -1.5707767803 -1.1841070472
H -1.2999069366 2.7793125072 -1.3505718989
H -5.8339207635 1.5843346142 1.082278987
H -7.7098329857 -0.1302903522 1.0509372199
H -7.2756403171 -0.0498940725 -0.6850160071
H -6.8713182205 -2.357965702 1.1603527682
H -6.3267823375 -2.2813527916 -0.5429248766
H -4.3703656693 -2.2815984098 1.5072899012
H -2.6395038994 3.9584044981 -1.578991122
H -1.9341266322 3.1078848363 -3.0118623525
H 1.1979403072 -3.4344186998 -0.3447383911
H 2.4478030442 -4.409473265 -1.2096145534
H 1.9114574319 -2.8135697081 -1.8954129992
H 0.1381155692 0.6305222105 1.3146570128
H 0.0361201184 -1.1715789902 1.2704318667
H 0.1093066587 0.6565732467 -1.2582769072
H 0.0972968102 -1.1374313691 -1.2685923056
$end

$rem
JOBTYPE                   OPT
METHOD                    B3LYP
DFT_D                     d3_op
BASIS                     STO-3G
GEOM_OPT_MAX_CYCLES       100
GEOM_OPT_TOL_GRADIENT     300
GEOM_OPT_TOL_DISPLACEMENT 1200
GEOM_OPT_TOL_ENERGY       100
SYMMETRY                  False
THRESH                    12
SCF_CONVERGENCE           8
MAX_SUB_FILE_NUM          128
MEM_STATIC                400
MEM_TOTAL                 4000
$end
--------------------------------------------------------------

   16   -1510.2758342008      5.20E-09 Convergence criterion met
 Total energy in the final basis set = -1510.27583420
   14   -1510.2785520533      3.00E-09 Convergence criterion met
 Total energy in the final basis set = -1510.27855205
   14   -1510.2811708243      4.52E-09 Convergence criterion met
 Total energy in the final basis set = -1510.28117082
   14   -1510.2838516484      6.06E-09 Convergence criterion met
 Total energy in the final basis set = -1510.28385165
   15   -1510.2848800002      3.83E-09 Convergence criterion met
 Total energy in the final basis set = -1510.28488000
   14   -1510.2859638055      4.19E-09 Convergence criterion met
 Total energy in the final basis set = -1510.28596381
   13   -1510.2862974218      1.99E-09 Convergence criterion met
 Total energy in the final basis set = -1510.28629742
   13   -1510.2866392525      3.38E-09 Convergence criterion met
   12   -1510.2937954502      5.22E-09 Convergence criterion met
 Total energy in the final basis set = -1510.29379545
   12   -1510.2937910657      3.62E-09 Convergence criterion met
 Total energy in the final basis set = -1510.29379107
   12   -1510.2938074575      5.30E-09 Convergence criterion met
 Total energy in the final basis set = -1510.29380746
   12   -1510.2938003714      2.32E-09 Convergence criterion met
 Total energy in the final basis set = -1510.29380037
   11   -1510.2938129753      4.85E-09 Convergence criterion met
 Total energy in the final basis set = -1510.29381298
    9   -1510.2938107712      5.81E-09 Convergence criterion met
 Total energy in the final basis set = -1510.29381077

             Standard Nuclear Orientation (Angstroms)
    I     Atom           X                Y                Z
 ----------------------------------------------------------------
    1      O      -2.3639202346     1.6947304359     0.8472336709
    2      C      -3.1102909533     1.6147812311    -0.1530380720
    3      C      -4.2258767182     0.5497236228    -0.4479083737
    4      C      -3.6758066595    -0.8893674319    -0.8368168211
    5      C      -2.1122016338    -1.0201405063    -0.7876757398
    6      O      -1.5409422324     0.1146811676    -1.4357511679
    7      C      -0.0655594752     0.1461725719    -1.2789103495
    8      C       0.3551797056     0.4429220402     0.2054996572
    9      O       1.8305091907     0.5325254634     0.1683729262
   10      C       2.4114751256     0.2471243518     1.4474043890
   11      C       3.9558019690     0.1472174542     1.2164808575
   12      C       4.3190129740    -0.8743706342     0.0558834481
   13      C       3.0663663847    -1.6017342535    -0.5615884414
   14      O       2.6951304979    -1.6151201147    -1.7555243355
   15      O      -3.1318563852     2.5725297451    -1.2197551823
   16      O       2.4391488121    -2.3382508587     0.4927595134
   17      O       1.7673430060     0.1020996512     2.5065565481
   18      C       1.3148666980    -3.1589526372    -0.0226577662
   19      C       4.5496871034     1.4930243246     0.6095979452
   20      C       6.1259899337     1.4286426839     0.7080231297
   21      C       6.4643141784     0.4291023052    -0.4603540320
   22      C       5.0179843877     0.0844192161    -0.9921746695
   23      O       4.2838490179     1.3626618958    -0.8397893743
   24      H       4.4367974259    -0.1236257508     2.1720032155
   25      H       5.0144362823    -1.6506542348     0.4251297360
   26      H       4.0898871996     2.4185367437     1.0074154132
   27      H       6.5633218968     2.4236510561     0.5287169230
   28      H       6.4647043660     1.0650129471     1.6913711723
   29      H       7.0588934302     0.9165070053    -1.2493626691
   30      H       7.0052077101    -0.4652713998    -0.1118780096
   31      H       4.9571666201    -0.2728855018    -2.0386357321
   32      O      -1.4604373908    -1.9587226264    -0.2762874061
   33      C      -2.0755237209     3.5886964988    -1.0114303970
   34      C      -5.0649324196     0.1934554001     0.8548180347
   35      C      -6.4041902416    -0.5134954876     0.4052352679
   36      C      -5.8731487880    -1.9376727598    -0.0060298217
   37      C      -4.3313121239    -1.7854820311     0.2930169302
   38      O      -4.2887777725    -0.9009898827     1.4807034452
   39      H      -4.8669871252     0.9518229597    -1.2515907251
   40      H      -4.0166697642    -1.1797324121    -1.8482274182
   41      H      -1.0656826098     3.1566943384    -1.1667902415
   42      H      -5.1878133838     1.0338391577     1.5650766980
   43      H      -7.1078565017    -0.5748505366     1.2506303585
   44      H      -6.8968438986     0.0143700077    -0.4270719970
   45      H      -6.3103681869    -2.7290150818     0.6232550727
   46      H      -6.0700346391    -2.1779130864    -1.0631872210
   47      H      -3.7788998729    -2.7252731153     0.4892397914
   48      H      -2.1195704006     4.0223473910     0.0082029784
   49      H      -2.2541566959     4.3791497950    -1.7632049019
   50      H       0.3660075671    -2.5777883256    -0.0979465462
   51      H       1.1780610685    -3.9790230823     0.7059915896
   52      H       1.5575737973    -3.5806166256    -1.0179527112
   53      H      -0.1168522429     1.3874289229     0.5576887469
   54      H       0.0254695525    -0.3738400878     0.8809894222
   55      H       0.2786700398     0.9681442329    -1.9376851143
   56      H       0.4063475021    -0.8011194639    -1.6200355025
 ----------------------------------------------------------------

    9   -1510.2938107100      3.19E-09 Convergence criterion met
 Total energy in the final basis set = -1510.29381071
 Final energy is   -1510.29381071000
 **  OPTIMIZATION CONVERGED  **

                    Orbital Energies (a.u.)
 --------------------------------------------------------------

 Alpha MOs
 -- Occupied --
-18.950 -18.933 -18.928 -18.922 -18.893 -18.889 -18.884 -18.874
-18.869 -18.865 -10.115 -10.099 -10.096 -10.093 -10.074 -10.064
-10.063 -10.061 -10.060 -10.058 -10.054 -10.044 -10.040 -10.039
-10.034 -10.032 -10.022 -10.021 -10.018 -10.017  -1.027  -1.010
 -1.008  -0.998  -0.972  -0.967  -0.951  -0.934  -0.934  -0.927
 -0.766  -0.760  -0.729  -0.722  -0.710  -0.704  -0.695  -0.663
 -0.650  -0.616  -0.596  -0.584  -0.547  -0.543  -0.539  -0.534
 -0.515  -0.508  -0.485  -0.475  -0.464  -0.459  -0.456  -0.442
 -0.433  -0.432  -0.428  -0.414  -0.411  -0.405  -0.401  -0.399
 -0.388  -0.378  -0.374  -0.366  -0.365  -0.358  -0.351  -0.346
 -0.344  -0.341  -0.335  -0.333  -0.329  -0.326  -0.324  -0.312
 -0.308  -0.306  -0.303  -0.300  -0.292  -0.287  -0.287  -0.276
 -0.270  -0.257  -0.253  -0.246  -0.242  -0.236  -0.231  -0.190
 -0.177  -0.175  -0.169  -0.161  -0.152  -0.150  -0.146  -0.144
 -0.140

          Ground-State Mulliken Net Atomic Charges

     Atom                 Charge (a.u.)
  ----------------------------------------
      1 O                    -0.221238
      2 C                     0.213412
      3 C                    -0.079718
      4 C                    -0.077661
      5 C                     0.220880
      6 O                    -0.168003
      7 C                    -0.050266
      8 C                    -0.055923
      9 O                    -0.173849
     10 C                     0.214344
     11 C                    -0.078509
     12 C                    -0.077459
     13 C                     0.213176
     14 O                    -0.221588
     15 O                    -0.168541
     16 O                    -0.177201
     17 O                    -0.205800
     18 C                    -0.146338
     19 C                     0.025940
     20 C                    -0.143946
     21 C                    -0.143938
     22 C                     0.024342
     23 O                    -0.186874
     24 H                     0.085426
     25 H                     0.083527
     26 H                     0.082029
     27 H                     0.077287
     28 H                     0.073725
     29 H                     0.077290
     30 H                     0.072913
     31 H                     0.088875
     32 O                    -0.209986
     33 C                    -0.129167
     34 C                     0.025508
     35 C                    -0.143726
     36 C                    -0.144154
     37 C                     0.024051
     38 O                    -0.186781
     39 H                     0.086893
     40 H                     0.087409
     41 H                     0.085280
     42 H                     0.085151
     43 H                     0.078750
     44 H                     0.073804
     45 H                     0.079122
     46 H                     0.073332
     47 H                     0.090848
     48 H                     0.090764
     49 H                     0.090269
     50 H                     0.104846
     51 H                     0.084876
     52 H                     0.084415
     53 H                     0.095680
     54 H                     0.099326
     55 H                     0.095723
     56 H                     0.101448
  ----------------------------------------
  Sum of atomic charges =     0.000000

                    Cartesian Multipole Moments
 -----------------------------------------------------------------
    Charge (ESU x 10^10)
                 0.0000
    Dipole Moment (Debye)
         X      -0.7390      Y       0.4018      Z      -1.6210
       Tot       1.8263
    Quadrupole Moments (Debye-Ang)
        XX    -132.6221     XY       0.4001     YY    -153.0805
        XZ       8.7408     YZ       2.2465     ZZ    -170.1025

 Total job time:  87.94s(wall), 4192.52s(cpu)
        *  Thank you very much for using Q-Chem.  Have a nice day.  *
