 Q-Chem 5.0, Q-Chem, Inc., Pleasanton, CA (2017)
 Q-Chem 5.0.1 for Intel X86 EM64T Linux

User input:
--------------------------------------------------------------
$molecule
0  1
O -3.7835149376 1.2323886863 2.2439086084
C -3.7501522828 1.4013857247 1.0068741414
C -4.5704077622 0.6313610547 -0.0896893003
C -3.8122588993 -0.5248397094 -0.8664388224
C -2.4150893034 -0.9933317687 -0.3010381178
O -1.7943570451 0.0570079819 0.4486858177
C -0.329814955 0.2033354004 0.2730047286
C 0.5336889298 -1.1018559587 0.1276449986
O 1.9251543574 -0.6072004924 -0.0323647572
C 2.8740571589 -1.6390434548 0.2346487
C 4.3263830575 -1.1897248096 -0.1609633249
C 4.5376819219 0.2384412024 -0.8214252114
C 3.2598647365 1.1110977111 -1.0876736354
O 2.7831585004 2.0174060988 -0.3707591669
O -3.0643112929 2.4841138853 0.3564151191
O 2.7707691538 0.768769225 -2.3970464522
O 2.5730379361 -2.7544818172 0.7129775141
C 1.5885688516 1.5919658437 -2.7346468365
C 5.2262764149 -1.0470108083 1.1468124637
C 6.74714465 -1.0938777559 0.7216734478
C 6.9336952036 0.3402274925 0.1008098118
C 5.4777204685 0.9288146492 0.2584595218
O 5.0123646003 0.3611790514 1.5446491092
H 4.7272513072 -1.9809747615 -0.8207176325
H 5.055905739 0.1214431951 -1.7899035939
H 4.941355099 -1.7363218815 1.9656043072
H 7.3895343353 -1.2417998469 1.6042033214
H 6.9476856642 -1.9004676892 -0.0015506464
H 7.655040751 0.9393312546 0.6791054172
H 7.2603343563 0.3112065751 -0.9509666433
H 5.4056627561 2.0334135773 0.2787292347
O -1.9154452353 -2.1175627595 -0.5221813273
C -2.2852210103 3.2519107981 1.3523489683
C -5.8045653402 -0.1704081338 0.5098862135
C -6.8699088157 -0.3485069202 -0.6398320111
C -6.1467417047 -1.4084106376 -1.5518702137
C -4.8496550844 -1.7138380828 -0.7031864502
O -5.288747897 -1.5458313653 0.7019676387
H -4.9125220525 1.3902559373 -0.8166535266
H -3.6498988378 -0.2510037694 -1.9261935866
H -1.5019223671 2.6267122075 1.8269057174
H -6.1888182167 0.2335365832 1.4665719355
H -7.8114161118 -0.7479164128 -0.2299248596
H -7.085261608 0.5951656566 -1.1660910169
H -6.7522369453 -2.3202768377 -1.6750965988
H -5.9000669313 -1.0124159413 -2.550095255
H -4.3991371105 -2.7139954646 -0.8570649417
H -2.9348539205 3.6641123515 2.151397929
H -1.8081437463 4.0809176693 0.7978580168
H 0.7139017824 0.9295451812 -2.8902540705
H 1.7915350028 2.1485814125 -3.6707215943
H 1.3889501173 2.3019232805 -1.9059855884
H 0.4466281713 -1.7528312658 1.0230103453
H 0.2272050871 -1.6910739829 -0.761391368
H 0.0183546987 0.764781125 1.1644918434
H -0.1503723553 0.8414309485 -0.6204321079
$end

$rem
JOBTYPE                   OPT
METHOD                    B3LYP
DFT_D                     d3_op
BASIS                     STO-3G
GEOM_OPT_MAX_CYCLES       100
GEOM_OPT_TOL_GRADIENT     300
GEOM_OPT_TOL_DISPLACEMENT 1200
GEOM_OPT_TOL_ENERGY       100
SYMMETRY                  False
THRESH                    12
SCF_CONVERGENCE           8
MAX_SUB_FILE_NUM          128
MEM_STATIC                400
MEM_TOTAL                 4000
$end
--------------------------------------------------------------

   16   -1510.2667664900      4.74E-09 Convergence criterion met
 Total energy in the final basis set = -1510.26676649
   14   -1510.2699597147      3.13E-09 Convergence criterion met
 Total energy in the final basis set = -1510.26995971
   14   -1510.2733094012      3.69E-09 Convergence criterion met
 Total energy in the final basis set = -1510.27330940
   14   -1510.2764504016      5.06E-09 Convergence criterion met
 Total energy in the final basis set = -1510.27645040
   14   -1510.2793223848      4.98E-09 Convergence criterion met
 Total energy in the final basis set = -1510.27932238
   14   -1510.2809795031      7.02E-09 Convergence criterion met
 Total energy in the final basis set = -1510.28097950
   15   -1510.2826015742      2.52E-09 Convergence criterion met
 Total energy in the final basis set = -1510.28260157
   14   -1510.2842579355      7.79E-09 Convergence criterion met
   12   -1510.2938103062      5.59E-09 Convergence criterion met
 Total energy in the final basis set = -1510.29381031
   11   -1510.2938405050      7.44E-09 Convergence criterion met
 Total energy in the final basis set = -1510.29384050
   11   -1510.2938458120      6.91E-09 Convergence criterion met
 Total energy in the final basis set = -1510.29384581
   11   -1510.2938463665      5.41E-09 Convergence criterion met
 Total energy in the final basis set = -1510.29384637
   11   -1510.2938394799      6.10E-09 Convergence criterion met
 Total energy in the final basis set = -1510.29383948
   10   -1510.2938429066      5.97E-09 Convergence criterion met
 Total energy in the final basis set = -1510.29384291

             Standard Nuclear Orientation (Angstroms)
    I     Atom           X                Y                Z
 ----------------------------------------------------------------
    1      O      -2.4067807684    -0.3294964838     1.7922396757
    2      C      -3.1641288860     0.5873793901     1.4063727211
    3      C      -4.2560968408     0.5302267513     0.2809720278
    4      C      -3.6645704960     0.4141074411    -1.1899229490
    5      C      -2.0996474799     0.3213044870    -1.2518470700
    6      O      -1.5524963959     1.3508989031    -0.4298410502
    7      C      -0.0729004931     1.2657492733    -0.3633296065
    8      C       0.4126108822     0.0450458308     0.4983228549
    9      O       1.8881143987     0.1544020328     0.4929447532
   10      C       2.5153485408    -1.1047062482     0.7670026637
   11      C       4.0456519260    -0.9046064191     0.5093681289
   12      C       4.3329908366    -0.2722052499    -0.9193954275
   13      C       3.0399356873    -0.0639477180    -1.7925786617
   14      O       2.6061381109     0.9989181826    -2.2882067410
   15      O      -3.2073471835     1.8957497481     1.9912036576
   16      O       2.4587141618    -1.3542849934    -1.9999705367
   17      O       1.9121789593    -2.1365988730     1.1266173289
   18      C       1.3020890229    -1.2754883023    -2.9261907230
   19      C       4.6620390761     0.2217707890     1.4494810212
   20      C       6.2379686418     0.1469102825     1.3493240518
   21      C       6.4875945583     0.8091881398    -0.0569094388
   22      C       5.0071076954     1.1027280363    -0.5188959922
   23      O       4.3243294923     1.4765237842     0.7428549783
   24      H       4.5503679284    -1.8774169329     0.6409599243
   25      H       5.0286630025    -0.9127160209    -1.4920286077
   26      H       4.2560668624     0.2334551001     2.4797371386
   27      H       6.7034190813     0.7293197250     2.1602444571
   28      H       6.6062014403    -0.8900952409     1.4027268836
   29      H       7.0558172225     1.7485649909     0.0349420613
   30      H       7.0181544941     0.1417647952    -0.7546983356
   31      H       4.8823740692     1.9022577931    -1.2748878212
   32      O      -1.4286577327    -0.4974800297    -1.9195358298
   33      C      -2.1659966586     2.0195004567     3.0360280626
   34      C      -5.1150352683    -0.8073253167     0.3513462136
   35      C      -6.4249889024    -0.5971907722    -0.5058464717
   36      C      -5.8492524802    -0.6892624088    -1.9683152541
   37      C      -4.3191152652    -0.9425852875    -1.6783787766
   38      O      -4.3259890948    -1.7700422097    -0.4492246656
   39      H      -4.8891121902     1.4293228169     0.3784080617
   40      H      -3.9839725311     1.2742463014    -1.8074637794
   41      H      -1.1491752392     2.0200894579     2.5924623963
   42      H      -5.2748094629    -1.1967279559     1.3754115911
   43      H      -7.1481179896    -1.4035416671    -0.3051956852
   44      H      -6.9070260547     0.3711142143    -0.2972579392
   45      H      -6.2826671048    -1.5382638713    -2.5204514492
   46      H      -6.0140547542     0.2318042194    -2.5502510479
   47      H      -3.7483709362    -1.4476271814    -2.4820391214
   48      H      -2.2262601093     1.1958703048     3.7762388362
   49      H      -2.3462338256     2.9875981943     3.5382980861
   50      H       0.3713969766    -0.9304953443    -2.4177865763
   51      H       1.1473972297    -2.3033958533    -3.3022694309
   52      H       1.5191978707    -0.5979940242    -3.7755189422
   53      H      -0.0027091080     0.1002606990     1.5284826661
   54      H       0.0836185331    -0.9149609312     0.0481682152
   55      H       0.2520031331     2.2119769191     0.1132645622
   56      H       0.3824050677     1.2026946032    -1.3762751297
 ----------------------------------------------------------------

    9   -1510.2938427829      5.14E-09 Convergence criterion met
 Total energy in the final basis set = -1510.29384278
 Final energy is   -1510.29384278293
 **  OPTIMIZATION CONVERGED  **

                    Orbital Energies (a.u.)
 --------------------------------------------------------------

 Alpha MOs
 -- Occupied --
-18.949 -18.933 -18.929 -18.922 -18.893 -18.889 -18.885 -18.874
-18.869 -18.865 -10.115 -10.099 -10.096 -10.093 -10.074 -10.066
-10.064 -10.061 -10.060 -10.058 -10.054 -10.044 -10.040 -10.038
-10.034 -10.032 -10.022 -10.021 -10.018 -10.017  -1.026  -1.011
 -1.008  -0.998  -0.972  -0.967  -0.951  -0.934  -0.934  -0.927
 -0.767  -0.760  -0.730  -0.722  -0.710  -0.705  -0.695  -0.664
 -0.650  -0.616  -0.596  -0.584  -0.547  -0.543  -0.540  -0.534
 -0.515  -0.508  -0.486  -0.475  -0.464  -0.459  -0.456  -0.442
 -0.433  -0.432  -0.428  -0.414  -0.411  -0.406  -0.401  -0.399
 -0.390  -0.378  -0.374  -0.366  -0.364  -0.358  -0.351  -0.346
 -0.344  -0.341  -0.334  -0.333  -0.329  -0.327  -0.323  -0.312
 -0.308  -0.306  -0.303  -0.300  -0.292  -0.287  -0.287  -0.276
 -0.270  -0.258  -0.253  -0.246  -0.242  -0.236  -0.231  -0.190
 -0.177  -0.175  -0.170  -0.161  -0.152  -0.150  -0.146  -0.144
 -0.141

          Ground-State Mulliken Net Atomic Charges

     Atom                 Charge (a.u.)
  ----------------------------------------
      1 O                    -0.219711
      2 C                     0.211898
      3 C                    -0.079545
      4 C                    -0.077702
      5 C                     0.221300
      6 O                    -0.168398
      7 C                    -0.050542
      8 C                    -0.053258
      9 O                    -0.173365
     10 C                     0.213876
     11 C                    -0.078294
     12 C                    -0.077712
     13 C                     0.213238
     14 O                    -0.221696
     15 O                    -0.168569
     16 O                    -0.177395
     17 O                    -0.205996
     18 C                    -0.146253
     19 C                     0.025825
     20 C                    -0.144006
     21 C                    -0.143793
     22 C                     0.024182
     23 O                    -0.186931
     24 H                     0.085544
     25 H                     0.083495
     26 H                     0.081839
     27 H                     0.077325
     28 H                     0.073764
     29 H                     0.077313
     30 H                     0.072986
     31 H                     0.088898
     32 O                    -0.209914
     33 C                    -0.128865
     34 C                     0.025670
     35 C                    -0.143779
     36 C                    -0.144067
     37 C                     0.024126
     38 O                    -0.186540
     39 H                     0.086847
     40 H                     0.087349
     41 H                     0.084993
     42 H                     0.084952
     43 H                     0.078751
     44 H                     0.073897
     45 H                     0.079050
     46 H                     0.073319
     47 H                     0.090769
     48 H                     0.090549
     49 H                     0.090354
     50 H                     0.105941
     51 H                     0.084828
     52 H                     0.083076
     53 H                     0.091936
     54 H                     0.100003
     55 H                     0.095904
     56 H                     0.102532
  ----------------------------------------
  Sum of atomic charges =     0.000000

                    Cartesian Multipole Moments
 -----------------------------------------------------------------
    Charge (ESU x 10^10)
                 0.0000
    Dipole Moment (Debye)
         X      -0.7219      Y       1.6842      Z      -0.2043
       Tot       1.8438
    Quadrupole Moments (Debye-Ang)
        XX    -132.4193     XY      -7.3128     YY    -169.6707
        XZ       3.3143     YZ       4.4847     ZZ    -153.7414

 Total job time:  97.20s(wall), 4632.47s(cpu)
        *  Thank you very much for using Q-Chem.  Have a nice day.  *
