 Q-Chem 5.0, Q-Chem, Inc., Pleasanton, CA (2017)
 Q-Chem 5.0.1 for Intel X86 EM64T Linux

User input:
--------------------------------------------------------------
$molecule
0  1
O -3.94934 -3.66094 2.70899
C -3.26408 -4.56952 2.26188
C -3.36658 -6.02376 2.66595
C -2.3293 -6.54815 3.67239
C -1.41544 -5.51766 4.29771
O -1.29806 -4.43803 3.46943
C 0.03021 -3.90632 3.42215
C 0.6715 -3.97027 4.80446
O 2.00478 -3.43891 4.75048
C 2.54049 -3.0856 5.94519
C 4.00983 -2.74874 5.85458
C 4.62884 -2.92192 4.4599
C 3.64711 -3.05195 3.31274
O 3.28098 -2.13941 2.58625
O -2.43733 -4.30605 1.21094
O 3.59658 -4.32053 2.80994
O 1.91289 -3.02971 6.9953
C 3.09411 -4.70686 1.5807
C 4.33027 -1.27278 6.1451
C 5.77991 -1.15007 6.61011
C 6.51642 -1.44789 5.31919
C 5.33505 -1.55296 4.34608
O 4.37623 -0.66873 4.87668
H 4.51989 -3.39862 6.60129
H 5.35399 -3.76525 4.40741
H 3.64282 -0.80925 6.88591
H 5.94497 -0.08106 6.87555
H 6.06203 -1.78873 7.47465
H 7.15672 -0.57221 5.07188
H 7.12496 -2.37805 5.322
H 5.67295 -1.34053 3.30751
O -1.41241 -5.38689 5.51764
C -2.27945 -3.06103 0.63831
C -4.66706 -6.30814 3.45737
C -5.04373 -7.78294 3.33141
C -3.96943 -8.41834 4.18406
C -3.27426 -7.16494 4.72838
O -4.29825 -6.20767 4.80958
H -3.42384 -6.61645 1.72507
H -1.66135 -7.31667 3.22615
H -1.90228 -2.33686 1.39125
H -5.52666 -5.67846 3.13832
H -6.02444 -7.91094 3.8439
H -5.12135 -8.17394 2.29416
H -4.46276 -8.98652 5.00386
H -3.25711 -9.07563 3.63985
H -2.75752 -7.41413 5.6809
H -3.24781 -2.70351 0.22775
H -1.5442 -3.13206 -0.18916
H 2.3449 -5.51049 1.72271
H 3.92092 -5.12447 0.97027
H 2.62961 -3.86624 1.0228
H 0.03415 -3.34841 5.47586
H 0.80643 -5.0021 5.1946
H -0.0057 -2.86079 3.0505
H 0.62417 -4.51041 2.71641
$end

$opt
CONSTRAINT
tors           1           2           3           4    -100.142
tors           3           4           5           6     -25.466
tors           4           5           6           7    -140.406
tors           5           6           7           8     -37.771
tors           6           7           8           9    +179.851
tors           7           8           9          10    +161.964
tors           8           9          10          11    +170.645
tors           9          10          11          12      -2.379
tors          11          12          13          14     +96.421
ENDCONSTRAINT
$end

$rem
JOBTYPE                   OPT
METHOD                    B3LYP
DFT_D                     d3_op
BASIS                     STO-3G
GEOM_OPT_MAX_CYCLES       100
GEOM_OPT_TOL_GRADIENT     300
GEOM_OPT_TOL_DISPLACEMENT 1200
GEOM_OPT_TOL_ENERGY       100
SYMMETRY                  False
THRESH                    12
SCF_CONVERGENCE           8
MAX_SUB_FILE_NUM          128
MEM_STATIC                400
MEM_TOTAL                 4000
$end
--------------------------------------------------------------

   15   -1510.1088842394      7.68E-09 Convergence criterion met
 Total energy in the final basis set = -1510.10888424
   14   -1510.1828889108      2.05E-09 Convergence criterion met
 Total energy in the final basis set = -1510.18288891
   14   -1510.2226790945      5.83E-09 Convergence criterion met
 Total energy in the final basis set = -1510.22267909
   15   -1510.2435379547      1.32E-09 Convergence criterion met
 Total energy in the final basis set = -1510.24353795
   14   -1510.2543858342      7.06E-09 Convergence criterion met
 Total energy in the final basis set = -1510.25438583
   14   -1510.2601822802      3.69E-09 Convergence criterion met
 Total energy in the final basis set = -1510.26018228
   13   -1510.2634713505      4.10E-09 Convergence criterion met
 Total energy in the final basis set = -1510.26347135
   13   -1510.2650160041      3.71E-09 Convergence criterion met
   10   -1510.2666662212      8.01E-09 Convergence criterion met
 Total energy in the final basis set = -1510.26666622
    9   -1510.2666845073      7.63E-09 Convergence criterion met
 Total energy in the final basis set = -1510.26668451
    9   -1510.2666956197      8.28E-09 Convergence criterion met
 Total energy in the final basis set = -1510.26669562
    9   -1510.2667017514      7.16E-09 Convergence criterion met
 Total energy in the final basis set = -1510.26670175
    9   -1510.2667037208      3.49E-09 Convergence criterion met
 Total energy in the final basis set = -1510.26670372
    9   -1510.2667047483      2.25E-09 Convergence criterion met
 Total energy in the final basis set = -1510.26670475

             Standard Nuclear Orientation (Angstroms)
    I     Atom           X                Y                Z
 ----------------------------------------------------------------
    1      O      -3.7835149376     1.2323886863     2.2439086084
    2      C      -3.7501522828     1.4013857247     1.0068741414
    3      C      -4.5704077622     0.6313610547    -0.0896893003
    4      C      -3.8122588993    -0.5248397094    -0.8664388224
    5      C      -2.4150893034    -0.9933317687    -0.3010381178
    6      O      -1.7943570451     0.0570079819     0.4486858177
    7      C      -0.3298149550     0.2033354004     0.2730047286
    8      C       0.5336889298    -1.1018559587     0.1276449986
    9      O       1.9251543574    -0.6072004924    -0.0323647572
   10      C       2.8740571589    -1.6390434548     0.2346487000
   11      C       4.3263830575    -1.1897248096    -0.1609633249
   12      C       4.5376819219     0.2384412024    -0.8214252114
   13      C       3.2598647365     1.1110977111    -1.0876736354
   14      O       2.7831585004     2.0174060988    -0.3707591669
   15      O      -3.0643112929     2.4841138853     0.3564151191
   16      O       2.7707691538     0.7687692250    -2.3970464522
   17      O       2.5730379361    -2.7544818172     0.7129775141
   18      C       1.5885688516     1.5919658437    -2.7346468365
   19      C       5.2262764149    -1.0470108083     1.1468124637
   20      C       6.7471446500    -1.0938777559     0.7216734478
   21      C       6.9336952036     0.3402274925     0.1008098118
   22      C       5.4777204685     0.9288146492     0.2584595218
   23      O       5.0123646003     0.3611790514     1.5446491092
   24      H       4.7272513072    -1.9809747615    -0.8207176325
   25      H       5.0559057390     0.1214431951    -1.7899035939
   26      H       4.9413550990    -1.7363218815     1.9656043072
   27      H       7.3895343353    -1.2417998469     1.6042033214
   28      H       6.9476856642    -1.9004676892    -0.0015506464
   29      H       7.6550407510     0.9393312546     0.6791054172
   30      H       7.2603343563     0.3112065751    -0.9509666433
   31      H       5.4056627561     2.0334135773     0.2787292347
   32      O      -1.9154452353    -2.1175627595    -0.5221813273
   33      C      -2.2852210103     3.2519107981     1.3523489683
   34      C      -5.8045653402    -0.1704081338     0.5098862135
   35      C      -6.8699088157    -0.3485069202    -0.6398320111
   36      C      -6.1467417047    -1.4084106376    -1.5518702137
   37      C      -4.8496550844    -1.7138380828    -0.7031864502
   38      O      -5.2887478970    -1.5458313653     0.7019676387
   39      H      -4.9125220525     1.3902559373    -0.8166535266
   40      H      -3.6498988378    -0.2510037694    -1.9261935866
   41      H      -1.5019223671     2.6267122075     1.8269057174
   42      H      -6.1888182167     0.2335365832     1.4665719355
   43      H      -7.8114161118    -0.7479164128    -0.2299248596
   44      H      -7.0852616080     0.5951656566    -1.1660910169
   45      H      -6.7522369453    -2.3202768377    -1.6750965988
   46      H      -5.9000669313    -1.0124159413    -2.5500952550
   47      H      -4.3991371105    -2.7139954646    -0.8570649417
   48      H      -2.9348539205     3.6641123515     2.1513979290
   49      H      -1.8081437463     4.0809176693     0.7978580168
   50      H       0.7139017824     0.9295451812    -2.8902540705
   51      H       1.7915350028     2.1485814125    -3.6707215943
   52      H       1.3889501173     2.3019232805    -1.9059855884
   53      H       0.4466281713    -1.7528312658     1.0230103453
   54      H       0.2272050871    -1.6910739829    -0.7613913680
   55      H       0.0183546987     0.7647811250     1.1644918434
   56      H      -0.1503723553     0.8414309485    -0.6204321079
 ----------------------------------------------------------------

    9   -1510.2667055501      2.12E-09 Convergence criterion met
 Total energy in the final basis set = -1510.26670555
 Final energy is   -1510.26670555010
 **  OPTIMIZATION CONVERGED  **

                    Orbital Energies (a.u.)
 --------------------------------------------------------------

 Alpha MOs
 -- Occupied --
-18.943 -18.940 -18.927 -18.922 -18.892 -18.889 -18.885 -18.879
-18.870 -18.864 -10.114 -10.106 -10.100 -10.094 -10.084 -10.076
-10.062 -10.060 -10.059 -10.058 -10.058 -10.057 -10.042 -10.042
-10.038 -10.034 -10.022 -10.021 -10.020 -10.019  -1.022  -1.018
 -1.005  -1.000  -0.972  -0.969  -0.950  -0.942  -0.932  -0.927
 -0.765  -0.762  -0.731  -0.723  -0.711  -0.705  -0.701  -0.662
 -0.657  -0.619  -0.599  -0.591  -0.546  -0.545  -0.539  -0.537
 -0.516  -0.511  -0.489  -0.473  -0.461  -0.459  -0.456  -0.445
 -0.440  -0.432  -0.430  -0.413  -0.411  -0.409  -0.406  -0.405
 -0.393  -0.387  -0.378  -0.369  -0.368  -0.361  -0.352  -0.347
 -0.343  -0.337  -0.336  -0.335  -0.331  -0.327  -0.326  -0.316
 -0.313  -0.308  -0.307  -0.303  -0.301  -0.296  -0.290  -0.273
 -0.273  -0.248  -0.247  -0.245  -0.238  -0.236  -0.233  -0.185
 -0.183  -0.170  -0.167  -0.162  -0.160  -0.152  -0.147  -0.144
 -0.143

          Ground-State Mulliken Net Atomic Charges

     Atom                 Charge (a.u.)
  ----------------------------------------
      1 O                    -0.216357
      2 C                     0.218178
      3 C                    -0.081658
      4 C                    -0.076510
      5 C                     0.218841
      6 O                    -0.174565
      7 C                    -0.044534
      8 C                    -0.050559
      9 O                    -0.172036
     10 C                     0.212446
     11 C                    -0.077748
     12 C                    -0.080610
     13 C                     0.221162
     14 O                    -0.219619
     15 O                    -0.175214
     16 O                    -0.175118
     17 O                    -0.211400
     18 C                    -0.137121
     19 C                     0.025389
     20 C                    -0.143869
     21 C                    -0.144103
     22 C                     0.025518
     23 O                    -0.188492
     24 H                     0.087384
     25 H                     0.085323
     26 H                     0.086847
     27 H                     0.078956
     28 H                     0.074069
     29 H                     0.078418
     30 H                     0.073401
     31 H                     0.087270
     32 O                    -0.203411
     33 C                    -0.128419
     34 C                     0.024560
     35 C                    -0.143165
     36 C                    -0.144970
     37 C                     0.023510
     38 O                    -0.189405
     39 H                     0.083479
     40 H                     0.084502
     41 H                     0.086736
     42 H                     0.088304
     43 H                     0.078244
     44 H                     0.072886
     45 H                     0.078537
     46 H                     0.072316
     47 H                     0.088873
     48 H                     0.087652
     49 H                     0.087340
     50 H                     0.079514
     51 H                     0.084102
     52 H                     0.099569
     53 H                     0.101757
     54 H                     0.098618
     55 H                     0.098270
     56 H                     0.086909
  ----------------------------------------
  Sum of atomic charges =     0.000000

                    Cartesian Multipole Moments
 -----------------------------------------------------------------
    Charge (ESU x 10^10)
                 0.0000
    Dipole Moment (Debye)
         X       0.8286      Y       1.6144      Z      -3.8541
       Tot       4.2599
    Quadrupole Moments (Debye-Ang)
        XX    -140.6827     XY      -6.1612     YY    -165.2693
        XZ       5.5533     YZ       0.6037     ZZ    -162.3189

 Total job time:  60.37s(wall), 2868.15s(cpu)
        *  Thank you very much for using Q-Chem.  Have a nice day.  *
