 Q-Chem 5.0, Q-Chem, Inc., Pleasanton, CA (2017)
 Q-Chem 5.0.1 for Intel X86 EM64T Linux

User input:
--------------------------------------------------------------
$molecule
0  1
O 3.8202933139 -0.4276259385 -2.7300058253
C 3.7965696079 0.4056932755 -1.7973127418
C 4.7279619426 0.4195955711 -0.5327459476
C 4.0550920762 0.2838171665 0.904767521
C 2.5190415032 -0.0715701975 0.9630895209
O 1.7960494732 0.9342288596 0.2598267443
C 0.3169202271 0.8838654902 0.3974983578
C -0.353780662 -0.5342451246 0.3464866597
O -1.8103721923 -0.2898646789 0.509714011
C -2.5472931314 -1.4532926078 0.1336454082
C -4.0897511076 -1.2516552935 0.3454746513
C -4.640968631 0.1900199155 0.7119412727
C -3.6154750023 1.3810605865 0.6997721291
O -3.2222836522 2.0476438871 -0.2808052042
O 3.0348843343 1.6155813915 -1.8328869334
O -3.2896199955 1.689391764 2.0649704377
O -2.0179381022 -2.4954471806 -0.3112602177
C -2.4476079517 2.9045817017 2.1222525899
C -4.902045269 -1.5663550964 -0.9873741748
C -6.3809854657 -1.9443773037 -0.584504797
C -6.9519063187 -0.5342405828 -0.1823793619
C -5.7026922813 0.3920091084 -0.4567654394
O -5.0452375837 -0.238680717 -1.6244109876
H -4.3824429046 -1.9674368342 1.1368557083
H -5.1189551843 0.1733600575 1.7069663452
H -4.3943232405 -2.2796677256 -1.665651842
H -6.9181854684 -2.3672234708 -1.4484199893
H -6.4137196597 -2.6712967565 0.242819804
H -7.7957817598 -0.2415137722 -0.8272025975
H -7.2793970766 -0.4904417181 0.8687156079
H -5.9381436134 1.4512832778 -0.6764811286
O 2.0306011354 -1.0312454105 1.6013917561
C 2.1677787918 1.6329384817 -3.0331919633
C 5.7119459378 -0.8252016991 -0.5253992119
C 6.974546982 -0.4470250737 0.3417051257
C 6.3591621387 -0.4797001261 1.7910907047
C 4.8784831493 -0.9387466317 1.4887026536
O 5.0124553988 -1.8268047181 0.3107885722
H 5.2949604624 1.3681005487 -0.5707629604
H 4.2053185959 1.2118780573 1.4873271521
H 1.4112252395 0.822291493 -3.0001992132
H 5.9155485605 -1.2367052856 -1.5332178425
H 7.7643654873 -1.2058096035 0.2228880393
H 7.3866600344 0.5388576209 0.0733819875
H 6.868437488 -1.217690608 2.4307684676
H 6.3935643348 0.5021313338 2.28998711
H 4.3574276931 -1.4674900619 2.3106239061
H 2.7569513705 1.5255657823 -3.9668740901
H 1.6565968234 2.6130443917 -3.025296536
H -2.073246812 2.9749667413 3.1601436648
H -3.0365385648 3.814134063 1.882211828
H -1.5944875945 2.8498420964 1.4179113069
H -0.1483102315 -1.0415244573 -0.6201164903
H 0.0534043179 -1.1637780533 1.1653709854
H -0.0704841573 1.5145082962 -0.4289158209
H 0.0344875331 1.3620023217 1.3615195414
$end

$rem
JOBTYPE                   OPT
METHOD                    B3LYP
DFT_D                     d3_op
BASIS                     STO-3G
GEOM_OPT_MAX_CYCLES       100
GEOM_OPT_TOL_GRADIENT     300
GEOM_OPT_TOL_DISPLACEMENT 1200
GEOM_OPT_TOL_ENERGY       100
SYMMETRY                  False
THRESH                    12
SCF_CONVERGENCE           8
MAX_SUB_FILE_NUM          128
MEM_STATIC                400
MEM_TOTAL                 4000
$end
--------------------------------------------------------------

   16   -1510.2709012679      5.69E-09 Convergence criterion met
 Total energy in the final basis set = -1510.27090127
   14   -1510.2739128762      7.94E-09 Convergence criterion met
 Total energy in the final basis set = -1510.27391288
   14   -1510.2767016621      8.59E-09 Convergence criterion met
 Total energy in the final basis set = -1510.27670166
   14   -1510.2780040861      8.70E-09 Convergence criterion met
 Total energy in the final basis set = -1510.27800409
   13   -1510.2797893725      5.91E-09 Convergence criterion met
 Total energy in the final basis set = -1510.27978937
   14   -1510.2815576957      2.41E-09 Convergence criterion met
 Total energy in the final basis set = -1510.28155770
   13   -1510.2830506171      7.87E-09 Convergence criterion met
 Total energy in the final basis set = -1510.28305062
   13   -1510.2844775603      8.63E-09 Convergence criterion met
   11   -1510.2979134114      7.98E-09 Convergence criterion met
 Total energy in the final basis set = -1510.29791341
   11   -1510.2979239599      6.17E-09 Convergence criterion met
 Total energy in the final basis set = -1510.29792396
   11   -1510.2979347148      5.48E-09 Convergence criterion met
 Total energy in the final basis set = -1510.29793471
   11   -1510.2979392061      3.92E-09 Convergence criterion met
 Total energy in the final basis set = -1510.29793921
   10   -1510.2979403721      8.86E-09 Convergence criterion met
 Total energy in the final basis set = -1510.29794037
   10   -1510.2979428494      8.99E-09 Convergence criterion met
 Total energy in the final basis set = -1510.29794285

             Standard Nuclear Orientation (Angstroms)
    I     Atom           X                Y                Z
 ----------------------------------------------------------------
    1      O       1.6026870490    -1.1146662862     0.7282930351
    2      C       2.0961253837    -0.7716715091    -0.3731765901
    3      C       3.5769978591    -0.3112161436    -0.6165334243
    4      C       3.9259591138     1.0426708889     0.1408581586
    5      C       2.7003073080     1.6638054283     0.9018757985
    6      O       1.6025979534     1.6789965308    -0.0155194236
    7      C       0.3366797210     2.0874569391     0.6379405095
    8      C      -0.1586043825     1.0406740567     1.7113117963
    9      O      -1.6257829228     0.8557371447     1.5281993978
   10      C      -1.9403243851    -0.5227795512     1.3279082166
   11      C      -3.4414443566    -0.6776291543     0.8881053129
   12      C      -3.9295775691     0.3304343464    -0.2368742011
   13      C      -2.9140895103     1.4586075763    -0.6128828324
   14      O      -1.8446959759     1.3621977825    -1.2663121571
   15      O       1.4039756585    -0.7800270271    -1.6189864489
   16      O      -3.4676100699     2.6945933637    -0.1603479159
   17      O      -1.1324485039    -1.4662981318     1.4751019023
   18      C      -2.5994991061     3.8416703094    -0.5138747695
   19      C      -3.6057858036    -2.0644052097     0.1384680853
   20      C      -5.1408969044    -2.3960139075    -0.0121835793
   21      C      -5.5518845466    -1.4189979159    -1.1758726719
   22      C      -4.1844999140    -0.6776290772    -1.4446590238
   23      O      -3.1723958882    -1.7362026176    -1.2407983988
   24      H      -4.0874381072    -0.6064459354     1.7826533761
   25      H      -4.8638062882     0.8297556919     0.0738305979
   26      H      -2.9712440049    -2.8677450395     0.5609162041
   27      H      -5.2833283836    -3.4500754886    -0.2982929789
   28      H      -5.6974416559    -2.2039071889     0.9191033019
   29      H      -5.8684685842    -1.9727482756    -2.0741519195
   30      H      -6.3557600418    -0.7229395885    -0.8876902307
   31      H      -4.0770608875    -0.2265668694    -2.4501395912
   32      O       2.6509515819     2.0778031872     2.0788820153
   33      C      -0.0262150005    -1.1415978960    -1.4317951059
   34      C       4.6042800737    -1.3003508641     0.0832762142
   35      C       6.0574728474    -0.9780799928    -0.4477710748
   36      C       6.3838032974     0.3483368659     0.3362709291
   37      C       5.0458465076     0.5551342032     1.1479528363
   38      O       4.6288689805    -0.8259256435     1.4851851293
   39      H       3.7469479500    -0.2247194180    -1.7037352993
   40      H       4.3143974918     1.7969177234    -0.5683131998
   41      H      -0.6622671573    -0.2248658040    -1.4402095620
   42      H       4.3120643004    -2.3675386438     0.0420841881
   43      H       6.7540603375    -1.7883960937    -0.1801997165
   44      H       6.0773220887    -0.8413190367    -1.5408256027
   45      H       7.2349020906     0.2121117994     1.0222186235
   46      H       6.5994145105     1.1967940729    -0.3325371412
   47      H       5.1213004244     1.1712007189     2.0651648336
   48      H      -0.1680172275    -1.6676726630    -0.4662700794
   49      H      -0.3141267519    -1.7968443671    -2.2743531889
   50      H      -3.2627785099     4.6812864210    -0.7950192872
   51      H      -1.9297988203     3.5802328882    -1.3569793309
   52      H      -1.9865633697     4.1375786652     0.3611082315
   53      H       0.3641266984     0.0640916368     1.5473649864
   54      H       0.0270938515     1.4009546254     2.7431358343
   55      H      -0.4036107115     2.0987124294    -0.1932738085
   56      H       0.4317966494     3.1001487551     1.0834717591
 ----------------------------------------------------------------

    9   -1510.2979421196      7.19E-09 Convergence criterion met
 Total energy in the final basis set = -1510.29794212
 Final energy is   -1510.29794211964
 **  OPTIMIZATION CONVERGED  **

                    Orbital Energies (a.u.)
 --------------------------------------------------------------

 Alpha MOs
 -- Occupied --
-18.949 -18.933 -18.929 -18.918 -18.892 -18.888 -18.880 -18.880
-18.875 -18.855 -10.116 -10.102 -10.096 -10.087 -10.070 -10.066
-10.061 -10.057 -10.053 -10.052 -10.050 -10.045 -10.043 -10.032
-10.028 -10.025 -10.025 -10.023 -10.015 -10.014  -1.024  -1.012
 -1.008  -0.992  -0.975  -0.963  -0.948  -0.939  -0.933  -0.918
 -0.769  -0.756  -0.729  -0.719  -0.711  -0.700  -0.690  -0.672
 -0.641  -0.613  -0.595  -0.578  -0.550  -0.542  -0.536  -0.530
 -0.516  -0.502  -0.483  -0.467  -0.464  -0.455  -0.448  -0.447
 -0.436  -0.435  -0.423  -0.420  -0.418  -0.408  -0.396  -0.393
 -0.390  -0.378  -0.371  -0.367  -0.362  -0.355  -0.353  -0.350
 -0.341  -0.340  -0.336  -0.329  -0.326  -0.323  -0.316  -0.313
 -0.308  -0.303  -0.301  -0.296  -0.292  -0.285  -0.277  -0.276
 -0.267  -0.260  -0.250  -0.240  -0.238  -0.229  -0.227  -0.188
 -0.183  -0.172  -0.164  -0.159  -0.153  -0.150  -0.149  -0.139
 -0.134

          Ground-State Mulliken Net Atomic Charges

     Atom                 Charge (a.u.)
  ----------------------------------------
      1 O                    -0.224760
      2 C                     0.216251
      3 C                    -0.078410
      4 C                    -0.078611
      5 C                     0.212485
      6 O                    -0.173074
      7 C                    -0.061677
      8 C                    -0.070569
      9 O                    -0.178051
     10 C                     0.213939
     11 C                    -0.078118
     12 C                    -0.080275
     13 C                     0.224600
     14 O                    -0.220493
     15 O                    -0.169367
     16 O                    -0.163445
     17 O                    -0.202544
     18 C                    -0.133494
     19 C                     0.023945
     20 C                    -0.144597
     21 C                    -0.143195
     22 C                     0.025291
     23 O                    -0.188971
     24 H                     0.087198
     25 H                     0.088685
     26 H                     0.093810
     27 H                     0.079671
     28 H                     0.074400
     29 H                     0.079104
     30 H                     0.074251
     31 H                     0.084207
     32 O                    -0.210697
     33 C                    -0.150411
     34 C                     0.025645
     35 C                    -0.144223
     36 C                    -0.143820
     37 C                     0.023678
     38 O                    -0.186690
     39 H                     0.085478
     40 H                     0.083783
     41 H                     0.099711
     42 H                     0.083790
     43 H                     0.077175
     44 H                     0.073040
     45 H                     0.077274
     46 H                     0.072055
     47 H                     0.089058
     48 H                     0.099024
     49 H                     0.082025
     50 H                     0.091187
     51 H                     0.099336
     52 H                     0.088913
     53 H                     0.124156
     54 H                     0.087481
     55 H                     0.105340
     56 H                     0.079508
  ----------------------------------------
  Sum of atomic charges =     0.000000

                    Cartesian Multipole Moments
 -----------------------------------------------------------------
    Charge (ESU x 10^10)
                 0.0000
    Dipole Moment (Debye)
         X      -2.6225      Y       1.9727      Z      -1.8328
       Tot       3.7588
    Quadrupole Moments (Debye-Ang)
        XX    -135.1837     XY       1.8308     YY    -154.0675
        XZ      -7.2955     YZ      -0.5928     ZZ    -166.8205

 Total job time:  126.73s(wall), 6041.29s(cpu)
        *  Thank you very much for using Q-Chem.  Have a nice day.  *
