 Q-Chem 5.0, Q-Chem, Inc., Pleasanton, CA (2017)
 Q-Chem 5.0.1 for Intel X86 EM64T Linux

User input:
--------------------------------------------------------------
$molecule
0  1
O -3.94934 -3.66094 2.70899
C -3.26408 -4.56952 2.26188
C -3.36658 -6.02376 2.66595
C -2.12121 -6.66689 3.29784
C -0.97133 -5.73777 3.61818
O -0.55366 -5.10716 2.48095
C 0.66593 -4.37847 2.65663
C 0.65336 -3.64754 3.99517
O 1.88034 -2.92116 4.16769
C 1.87094 -1.98541 5.14923
C 3.20322 -1.29408 5.31584
C 4.23886 -1.61368 4.22792
C 3.6981 -2.26865 2.97281
O 3.1812 -1.68155 2.03329
O -2.48937 -4.30153 1.17702
O 4.13485 -3.54163 2.76414
O 0.91664 -1.76876 5.88591
C 4.10825 -4.18934 1.5452
C 3.13097 0.24159 5.18311
C 4.30894 0.8695 5.92683
C 5.46015 0.46403 5.02687
C 4.68826 -0.1853 3.87121
O 3.4636 0.50795 3.84283
H 3.56354 -1.54649 6.33877
H 5.06176 -2.25018 4.62388
H 2.17197 0.67251 5.54473
H 4.17731 1.97351 5.85965
H 4.41843 0.58148 6.99451
H 5.98521 1.38601 4.69229
H 6.18537 -0.24929 5.4752
H 5.2875 -0.15797 2.93415
O -0.16482 -6.18299 4.42975
C -2.31337 -3.04585 0.63327
C -4.39923 -6.24292 3.79233
C -4.88094 -7.69299 3.78896
C -3.65898 -8.39426 4.33614
C -2.7497 -7.19276 4.61105
O -3.64145 -6.16852 4.97223
H -3.70523 -6.57141 1.75793
H -1.70859 -7.49992 2.68516
H -1.86027 -2.36537 1.38593
H -5.27605 -5.56202 3.72937
H -5.70103 -7.77638 4.53782
H -5.24198 -8.06251 2.80505
H -3.93781 -8.88711 5.29439
H -3.18721 -9.13387 3.65365
H -1.99853 -7.47268 5.38104
H -3.28711 -2.63498 0.29114
H -1.62981 -3.11954 -0.23717
H 4.49593 -5.22075 1.67235
H 4.75412 -3.65229 0.81844
H 3.07698 -4.23835 1.14358
H -0.19662 -2.92972 3.92265
H 0.52268 -4.20015 4.93976
H 0.79931 -3.67121 1.81107
H 1.51345 -5.09696 2.66565
$end

$opt
CONSTRAINT
tors           1           2           3           4    -118.853
tors           3           4           5           6     -58.561
tors           4           5           6           7    -170.424
tors           5           6           7           8     -41.381
tors           6           7           8           9    +179.851
tors           7           8           9          10    +164.884
tors           8           9          10          11    +177.809
tors           9          10          11          12      +8.840
tors          11          12          13          14     +82.679
ENDCONSTRAINT
$end

$rem
JOBTYPE                   OPT
METHOD                    B3LYP
DFT_D                     d3_op
BASIS                     STO-3G
GEOM_OPT_MAX_CYCLES       100
GEOM_OPT_TOL_GRADIENT     300
GEOM_OPT_TOL_DISPLACEMENT 1200
GEOM_OPT_TOL_ENERGY       100
SYMMETRY                  False
THRESH                    12
SCF_CONVERGENCE           8
MAX_SUB_FILE_NUM          128
MEM_STATIC                400
MEM_TOTAL                 4000
$end
--------------------------------------------------------------

   16   -1510.1153558698      3.89E-09 Convergence criterion met
 Total energy in the final basis set = -1510.11535587
   14   -1510.1888896063      9.05E-09 Convergence criterion met
 Total energy in the final basis set = -1510.18888961
   15   -1510.2283109358      1.98E-09 Convergence criterion met
 Total energy in the final basis set = -1510.22831094
   14   -1510.2489115884      4.03E-09 Convergence criterion met
 Total energy in the final basis set = -1510.24891159
   14   -1510.2599276188      2.62E-09 Convergence criterion met
 Total energy in the final basis set = -1510.25992762
    2   -1510.2599276187      5.23E-09 Convergence criterion met
 Total energy in the final basis set = -1510.25992762
   13   -1510.2657190239      6.75E-09 Convergence criterion met
 Total energy in the final basis set = -1510.26571902
   13   -1510.2687769987      4.41E-09 Convergence criterion met
    9   -1510.2711594638      8.28E-09 Convergence criterion met
 Total energy in the final basis set = -1510.27115946
    9   -1510.2711615300      6.63E-09 Convergence criterion met
 Total energy in the final basis set = -1510.27116153
    9   -1510.2711639424      8.90E-09 Convergence criterion met
 Total energy in the final basis set = -1510.27116394
    9   -1510.2711662340      9.14E-09 Convergence criterion met
 Total energy in the final basis set = -1510.27116623
    9   -1510.2711677958      7.87E-09 Convergence criterion met
 Total energy in the final basis set = -1510.27116780
    9   -1510.2711689803      5.65E-09 Convergence criterion met
 Total energy in the final basis set = -1510.27116898

             Standard Nuclear Orientation (Angstroms)
    I     Atom           X                Y                Z
 ----------------------------------------------------------------
    1      O       3.8202933139    -0.4276259385    -2.7300058253
    2      C       3.7965696079     0.4056932755    -1.7973127418
    3      C       4.7279619426     0.4195955711    -0.5327459476
    4      C       4.0550920762     0.2838171665     0.9047675210
    5      C       2.5190415032    -0.0715701975     0.9630895209
    6      O       1.7960494732     0.9342288596     0.2598267443
    7      C       0.3169202271     0.8838654902     0.3974983578
    8      C      -0.3537806620    -0.5342451246     0.3464866597
    9      O      -1.8103721923    -0.2898646789     0.5097140110
   10      C      -2.5472931314    -1.4532926078     0.1336454082
   11      C      -4.0897511076    -1.2516552935     0.3454746513
   12      C      -4.6409686310     0.1900199155     0.7119412727
   13      C      -3.6154750023     1.3810605865     0.6997721291
   14      O      -3.2222836522     2.0476438871    -0.2808052042
   15      O       3.0348843343     1.6155813915    -1.8328869334
   16      O      -3.2896199955     1.6893917640     2.0649704377
   17      O      -2.0179381022    -2.4954471806    -0.3112602177
   18      C      -2.4476079517     2.9045817017     2.1222525899
   19      C      -4.9020452690    -1.5663550964    -0.9873741748
   20      C      -6.3809854657    -1.9443773037    -0.5845047970
   21      C      -6.9519063187    -0.5342405828    -0.1823793619
   22      C      -5.7026922813     0.3920091084    -0.4567654394
   23      O      -5.0452375837    -0.2386807170    -1.6244109876
   24      H      -4.3824429046    -1.9674368342     1.1368557083
   25      H      -5.1189551843     0.1733600575     1.7069663452
   26      H      -4.3943232405    -2.2796677256    -1.6656518420
   27      H      -6.9181854684    -2.3672234708    -1.4484199893
   28      H      -6.4137196597    -2.6712967565     0.2428198040
   29      H      -7.7957817598    -0.2415137722    -0.8272025975
   30      H      -7.2793970766    -0.4904417181     0.8687156079
   31      H      -5.9381436134     1.4512832778    -0.6764811286
   32      O       2.0306011354    -1.0312454105     1.6013917561
   33      C       2.1677787918     1.6329384817    -3.0331919633
   34      C       5.7119459378    -0.8252016991    -0.5253992119
   35      C       6.9745469820    -0.4470250737     0.3417051257
   36      C       6.3591621387    -0.4797001261     1.7910907047
   37      C       4.8784831493    -0.9387466317     1.4887026536
   38      O       5.0124553988    -1.8268047181     0.3107885722
   39      H       5.2949604624     1.3681005487    -0.5707629604
   40      H       4.2053185959     1.2118780573     1.4873271521
   41      H       1.4112252395     0.8222914930    -3.0001992132
   42      H       5.9155485605    -1.2367052856    -1.5332178425
   43      H       7.7643654873    -1.2058096035     0.2228880393
   44      H       7.3866600344     0.5388576209     0.0733819875
   45      H       6.8684374880    -1.2176906080     2.4307684676
   46      H       6.3935643348     0.5021313338     2.2899871100
   47      H       4.3574276931    -1.4674900619     2.3106239061
   48      H       2.7569513705     1.5255657823    -3.9668740901
   49      H       1.6565968234     2.6130443917    -3.0252965360
   50      H      -2.0732468120     2.9749667413     3.1601436648
   51      H      -3.0365385648     3.8141340630     1.8822118280
   52      H      -1.5944875945     2.8498420964     1.4179113069
   53      H      -0.1483102315    -1.0415244573    -0.6201164903
   54      H       0.0534043179    -1.1637780533     1.1653709854
   55      H      -0.0704841573     1.5145082962    -0.4289158209
   56      H       0.0344875331     1.3620023217     1.3615195414
 ----------------------------------------------------------------

    9   -1510.2711683428      5.34E-09 Convergence criterion met
 Total energy in the final basis set = -1510.27116834
 Final energy is   -1510.27116834280
 **  OPTIMIZATION CONVERGED  **

                    Orbital Energies (a.u.)
 --------------------------------------------------------------

 Alpha MOs
 -- Occupied --
-18.944 -18.941 -18.934 -18.927 -18.887 -18.884 -18.884 -18.874
-18.873 -18.865 -10.109 -10.103 -10.098 -10.096 -10.080 -10.068
-10.063 -10.062 -10.059 -10.058 -10.056 -10.056 -10.040 -10.039
-10.037 -10.035 -10.020 -10.019 -10.019 -10.018  -1.020  -1.015
 -1.008  -1.003  -0.970  -0.968  -0.947  -0.938  -0.933  -0.929
 -0.763  -0.761  -0.729  -0.721  -0.711  -0.704  -0.699  -0.662
 -0.661  -0.618  -0.597  -0.589  -0.545  -0.543  -0.538  -0.537
 -0.514  -0.510  -0.486  -0.469  -0.462  -0.458  -0.457  -0.445
 -0.439  -0.429  -0.428  -0.412  -0.411  -0.409  -0.407  -0.402
 -0.391  -0.381  -0.380  -0.371  -0.367  -0.359  -0.350  -0.348
 -0.344  -0.337  -0.335  -0.332  -0.330  -0.328  -0.326  -0.313
 -0.311  -0.306  -0.305  -0.298  -0.294  -0.292  -0.285  -0.273
 -0.272  -0.257  -0.250  -0.245  -0.243  -0.234  -0.232  -0.188
 -0.183  -0.172  -0.169  -0.158  -0.156  -0.148  -0.146  -0.143
 -0.142

          Ground-State Mulliken Net Atomic Charges

     Atom                 Charge (a.u.)
  ----------------------------------------
      1 O                    -0.212745
      2 C                     0.207805
      3 C                    -0.079309
      4 C                    -0.076328
      5 C                     0.212167
      6 O                    -0.164285
      7 C                    -0.048648
      8 C                    -0.057780
      9 O                    -0.171338
     10 C                     0.211208
     11 C                    -0.078539
     12 C                    -0.080840
     13 C                     0.217322
     14 O                    -0.219110
     15 O                    -0.163090
     16 O                    -0.172482
     17 O                    -0.213053
     18 C                    -0.129736
     19 C                     0.025099
     20 C                    -0.143295
     21 C                    -0.144725
     22 C                     0.026083
     23 O                    -0.187616
     24 H                     0.085801
     25 H                     0.085051
     26 H                     0.088408
     27 H                     0.078532
     28 H                     0.073867
     29 H                     0.078035
     30 H                     0.073376
     31 H                     0.084591
     32 O                    -0.211004
     33 C                    -0.127704
     34 C                     0.023334
     35 C                    -0.143483
     36 C                    -0.145011
     37 C                     0.023461
     38 O                    -0.189503
     39 H                     0.084641
     40 H                     0.084824
     41 H                     0.087603
     42 H                     0.090479
     43 H                     0.078276
     44 H                     0.072435
     45 H                     0.078286
     46 H                     0.072116
     47 H                     0.090234
     48 H                     0.089956
     49 H                     0.090620
     50 H                     0.087586
     51 H                     0.084363
     52 H                     0.088268
     53 H                     0.093060
     54 H                     0.110669
     55 H                     0.097160
     56 H                     0.084908
  ----------------------------------------
  Sum of atomic charges =     0.000000

                    Cartesian Multipole Moments
 -----------------------------------------------------------------
    Charge (ESU x 10^10)
                 0.0000
    Dipole Moment (Debye)
         X      -0.2885      Y       2.7428      Z       2.2700
       Tot       3.5720
    Quadrupole Moments (Debye-Ang)
        XX    -138.0004     XY      11.6253     YY    -164.4035
        XZ      -2.0230     YZ       0.7126     ZZ    -160.3167

 Total job time:  66.17s(wall), 3145.42s(cpu)
        *  Thank you very much for using Q-Chem.  Have a nice day.  *
