 Q-Chem 5.0, Q-Chem, Inc., Pleasanton, CA (2017)
 Q-Chem 5.0.1 for Intel X86 EM64T Linux

User input:
--------------------------------------------------------------
$molecule
0  1
O -3.6591620931 -2.686358083 -0.3891655522
C -3.6798942009 -1.817462578 0.509979353
C -4.6012547938 -0.5492083721 0.579112107
C -3.8981012653 0.8722811272 0.4520745539
C -2.3980257691 0.881226589 -0.0424210865
O -1.6353324874 0.0649751841 0.8401101328
C -0.1571750521 0.1305173538 0.7001930893
C 0.4569331012 0.3751503636 -0.7256867376
O 1.9205702132 0.3953351207 -0.4968739683
C 2.6541085544 -0.1316171362 -1.6004662578
C 4.1957254545 0.0141103742 -1.3269609736
C 4.606345168 0.7586173922 0.0103750249
C 3.5028183272 1.6366318103 0.703602909
O 3.0759882394 1.5287192227 1.8739431374
O -2.9856676036 -1.9436753186 1.7556529539
O 3.2017452217 2.736609157 -0.1742726222
O 2.1265793281 -0.6511622344 -2.6074752371
C 2.1600629789 3.5964606514 0.4299564799
C 4.7588574607 -1.4411150597 -1.0121591293
C 6.3378788382 -1.405392083 -0.9483462462
C 6.5786635361 -0.787455648 0.47990549
C 5.09781054 -0.4565399795 0.9067812987
O 4.3407333035 -1.6249222297 0.3977281988
H 4.6657663176 0.4658903063 -2.218990924
H 5.4513804982 1.4381796532 -0.2065231051
H 4.3309985216 -2.235425772 -1.6547827848
H 6.7496491423 -2.4239151819 -1.0272928959
H 6.7659600959 -0.7891122567 -1.7551601324
H 7.0210638285 -1.5263816022 1.1671558714
H 7.221060118 0.1070844025 0.4578567647
H 4.9170552305 -0.3180731124 1.990653861
O -1.9618272422 1.5656812586 -0.9939461997
C -2.1261493907 -3.1487389182 1.7339541176
C -5.6414719433 -0.4843077871 -0.6167964526
C -6.8751022037 0.3736801937 -0.1357563535
C -6.2406454295 1.8147831186 -0.1118364254
C -4.7943451148 1.5272371448 -0.678912429
O -4.9915820741 0.3951810321 -1.6154148682
H -5.1276519026 -0.5988186535 1.5500126238
H -3.9444815984 1.41976899 1.4115923915
H -1.3433565367 -3.0770417752 0.9513930937
H -5.8771316741 -1.4700793797 -1.0629176533
H -7.6958445432 0.3088666199 -0.8679814448
H -7.2524616805 0.0548761685 0.8491278869
H -6.7844497375 2.5089946088 -0.7716407713
H -6.2057126512 2.2458225185 0.9016986503
H -4.3013002721 2.3723472737 -1.1977572147
H -2.717127106 -4.0704137264 1.5548148529
H -1.6480393487 -3.2007165281 2.7292875569
H 1.2078551167 3.4761108319 -0.1253302567
H 2.4907033586 4.650553864 0.3602247036
H 2.0113621561 3.3090964831 1.490849429
H 0.1946892979 -0.4316566876 -1.4430720531
H 0.1088213569 1.3435977805 -1.1389075866
H 0.2106577864 -0.8400531945 1.0929139777
H 0.2222969386 0.9321393757 1.3740039721
$end

$rem
JOBTYPE                   OPT
METHOD                    B3LYP
DFT_D                     d3_op
BASIS                     STO-3G
GEOM_OPT_MAX_CYCLES       100
GEOM_OPT_TOL_GRADIENT     300
GEOM_OPT_TOL_DISPLACEMENT 1200
GEOM_OPT_TOL_ENERGY       100
SYMMETRY                  False
THRESH                    12
SCF_CONVERGENCE           8
MAX_SUB_FILE_NUM          128
MEM_STATIC                400
MEM_TOTAL                 4000
$end
--------------------------------------------------------------

   16   -1510.2717718549      5.41E-09 Convergence criterion met
 Total energy in the final basis set = -1510.27177185
   14   -1510.2748641856      9.03E-09 Convergence criterion met
 Total energy in the final basis set = -1510.27486419
   15   -1510.2777185205      2.80E-09 Convergence criterion met
 Total energy in the final basis set = -1510.27771852
   15   -1510.2804429213      2.91E-09 Convergence criterion met
 Total energy in the final basis set = -1510.28044292
   14   -1510.2826805992      6.75E-09 Convergence criterion met
 Total energy in the final basis set = -1510.28268060
   14   -1510.2845302840      7.01E-09 Convergence criterion met
 Total energy in the final basis set = -1510.28453028
   14   -1510.2858958579      4.65E-09 Convergence criterion met
 Total energy in the final basis set = -1510.28589586
   13   -1510.2868780115      4.38E-09 Convergence criterion met
   13   -1510.2936814522      1.79E-09 Convergence criterion met
 Total energy in the final basis set = -1510.29368145
   12   -1510.2938062003      6.54E-09 Convergence criterion met
 Total energy in the final basis set = -1510.29380620
   12   -1510.2937700063      4.59E-09 Convergence criterion met
 Total energy in the final basis set = -1510.29377001
   12   -1510.2938225715      2.18E-09 Convergence criterion met
 Total energy in the final basis set = -1510.29382257
   10   -1510.2938269944      9.10E-09 Convergence criterion met
 Total energy in the final basis set = -1510.29382699
   11   -1510.2938216067      7.07E-09 Convergence criterion met
 Total energy in the final basis set = -1510.29382161

             Standard Nuclear Orientation (Angstroms)
    I     Atom           X                Y                Z
 ----------------------------------------------------------------
    1      O      -2.3883635326     1.5534036672     1.0261458692
    2      C      -3.1346094530     1.5747437456     0.0229512686
    3      C      -4.2347261577     0.5325315074    -0.3881322986
    4      C      -3.6608846982    -0.8623527764    -0.8886620398
    5      C      -2.0962090794    -0.9722636060    -0.8401937398
    6      O      -1.5453929196     0.2178442610    -1.4021585602
    7      C      -0.0685864829     0.2522337079    -1.2649154751
    8      C       0.3766690164     0.4489838696     0.2285462485
    9      O       1.8510482083     0.5421236935     0.1691475121
   10      C       2.4545231339     0.2191594794     1.4285252390
   11      C       3.9954884845     0.1424359971     1.1695263754
   12      C       4.3490085845    -0.8155305939    -0.0467152363
   13      C       3.0940867733    -1.5238269720    -0.6821305646
   14      O       2.7095549187    -1.4857753207    -1.8712389991
   15      O      -3.1645388617     2.6403655899    -0.9359331843
   16      O       2.4869924225    -2.3163662640     0.3432659435
   17      O       1.8282791576     0.0363385981     2.4925130745
   18      C       1.3639085798    -3.1213895181    -0.1984522270
   19      C       4.5685258453     1.5232186668     0.6229641262
   20      C       6.1467225484     1.4686617311     0.6936029782
   21      C       6.4750063489     0.5325811517    -0.5288849778
   22      C       5.0233100552     0.2016671861    -1.0551409093
   23      O       4.2808603807     1.4638115456    -0.8266101496
   24      H       4.4933121835    -0.1713031570     2.1030365738
   25      H       5.0571333539    -1.6022964876     0.2728449059
   26      H       4.1071721154     2.4229675275     1.0746330376
   27      H       6.5726679754     2.4755279570     0.5586438760
   28      H       6.5038520794     1.0584865889     1.6517648665
   29      H       7.0529071070     1.0648217733    -1.3010998894
   30      H       7.0285401818    -0.3732128889    -0.2341117291
   31      H       4.9484687124    -0.1026397828    -2.1173068317
   32      O      -1.4276838161    -1.9356064193    -0.4023714335
   33      C      -2.1198828917     3.6397000076    -0.6171685487
   34      C      -5.0959796319     0.0564313712     0.8608449024
   35      C      -6.4135044381    -0.6279395217     0.3213764557
   36      C      -5.8532868116    -2.0081944454    -0.1888136148
   37      C      -4.3198701872    -1.8584549840     0.1524480073
   38      O      -4.3151649591    -1.0752172079     1.4099651392
   39      H      -4.8637396852     0.9979115692    -1.1665447752
   40      H      -3.9884508995    -1.0694749433    -1.9245234537
   41      H      -1.1041230389     3.2307848188    -0.7944165521
   42      H      -5.2471685342     0.8326000107     1.6356354549
   43      H      -7.1380442707    -0.7649434571     1.1397776841
   44      H      -6.8907175174    -0.0396716522    -0.4786092485
   45      H      -6.2905175957    -2.8522352764     0.3679084908
   46      H      -6.0264594491    -2.1672193566    -1.2652645168
   47      H      -3.7561493851    -2.8031620346     0.2816037637
   48      H      -2.1839227778     3.9779252332     0.4369762078
   49      H      -2.2931734345     4.4947866943    -1.2959146218
   50      H       0.4140564142    -2.5403966474    -0.2576692018
   51      H       1.2272079220    -3.9627907689     0.5054274040
   52      H       1.6079308495    -3.5138674235    -1.2053686401
   53      H      -0.0859618345     1.3673763499     0.6538215942
   54      H       0.0579260536    -0.4117166381     0.8527029055
   55      H       0.2595744328     1.1198419461    -1.8712516914
   56      H       0.4036613584    -0.6665459740    -1.6765482387
 ----------------------------------------------------------------

    9   -1510.2938218685      8.15E-09 Convergence criterion met
 Total energy in the final basis set = -1510.29382187
 Final energy is   -1510.29382186847
 **  OPTIMIZATION CONVERGED  **

                    Orbital Energies (a.u.)
 --------------------------------------------------------------

 Alpha MOs
 -- Occupied --
-18.949 -18.933 -18.929 -18.922 -18.893 -18.889 -18.885 -18.874
-18.869 -18.865 -10.115 -10.099 -10.096 -10.093 -10.074 -10.065
-10.063 -10.061 -10.061 -10.058 -10.055 -10.044 -10.041 -10.038
-10.034 -10.032 -10.022 -10.021 -10.018 -10.017  -1.026  -1.011
 -1.007  -0.998  -0.972  -0.967  -0.951  -0.934  -0.933  -0.927
 -0.767  -0.760  -0.730  -0.722  -0.710  -0.704  -0.695  -0.664
 -0.650  -0.616  -0.596  -0.584  -0.547  -0.543  -0.540  -0.534
 -0.515  -0.508  -0.485  -0.475  -0.464  -0.459  -0.456  -0.442
 -0.433  -0.432  -0.428  -0.414  -0.411  -0.405  -0.401  -0.399
 -0.389  -0.378  -0.374  -0.366  -0.365  -0.358  -0.351  -0.346
 -0.344  -0.341  -0.335  -0.333  -0.329  -0.327  -0.324  -0.312
 -0.308  -0.306  -0.303  -0.300  -0.292  -0.287  -0.287  -0.276
 -0.270  -0.257  -0.253  -0.246  -0.242  -0.236  -0.231  -0.190
 -0.177  -0.175  -0.169  -0.161  -0.152  -0.150  -0.146  -0.144
 -0.141

          Ground-State Mulliken Net Atomic Charges

     Atom                 Charge (a.u.)
  ----------------------------------------
      1 O                    -0.220795
      2 C                     0.212915
      3 C                    -0.079561
      4 C                    -0.077774
      5 C                     0.220906
      6 O                    -0.168256
      7 C                    -0.050139
      8 C                    -0.054831
      9 O                    -0.173736
     10 C                     0.214503
     11 C                    -0.078564
     12 C                    -0.077526
     13 C                     0.213477
     14 O                    -0.221749
     15 O                    -0.168584
     16 O                    -0.177457
     17 O                    -0.205795
     18 C                    -0.145798
     19 C                     0.025948
     20 C                    -0.143938
     21 C                    -0.143936
     22 C                     0.024348
     23 O                    -0.187042
     24 H                     0.085428
     25 H                     0.083449
     26 H                     0.081888
     27 H                     0.077305
     28 H                     0.073741
     29 H                     0.077329
     30 H                     0.072962
     31 H                     0.088975
     32 O                    -0.209956
     33 C                    -0.129062
     34 C                     0.025490
     35 C                    -0.143806
     36 C                    -0.144042
     37 C                     0.024150
     38 O                    -0.186591
     39 H                     0.086855
     40 H                     0.087371
     41 H                     0.085190
     42 H                     0.085001
     43 H                     0.078709
     44 H                     0.073851
     45 H                     0.079125
     46 H                     0.073356
     47 H                     0.090695
     48 H                     0.090530
     49 H                     0.090335
     50 H                     0.104496
     51 H                     0.085022
     52 H                     0.084269
     53 H                     0.094556
     54 H                     0.099411
     55 H                     0.095913
     56 H                     0.101439
  ----------------------------------------
  Sum of atomic charges =     0.000000

                    Cartesian Multipole Moments
 -----------------------------------------------------------------
    Charge (ESU x 10^10)
                 0.0000
    Dipole Moment (Debye)
         X      -0.7201      Y       0.5461      Z      -1.5957
       Tot       1.8339
    Quadrupole Moments (Debye-Ang)
        XX    -132.6247     XY       0.0952     YY    -153.3611
        XZ       8.6019     YZ       3.5105     ZZ    -169.9890

 Total job time:  89.60s(wall), 4269.44s(cpu)
        *  Thank you very much for using Q-Chem.  Have a nice day.  *
