 Q-Chem 5.0, Q-Chem, Inc., Pleasanton, CA (2017)
 Q-Chem 5.0.1 for Intel X86 EM64T Linux

User input:
--------------------------------------------------------------
$molecule
0  1
O -3.94934 -3.66094 2.70899
C -3.26408 -4.56952 2.26188
C -3.36658 -6.02376 2.66595
C -2.17039 -6.63007 3.41787
C -1.08059 -5.66895 3.83816
O -0.60097 -5.00466 2.74541
C 0.58989 -4.25842 3.01789
C 0.56569 -3.73442 4.45001
O 1.76809 -2.99739 4.72185
C 1.63176 -1.95434 5.57778
C 2.94441 -1.27869 5.89572
C 4.18083 -1.93849 5.26787
C 3.90733 -2.92887 4.15384
O 4.35776 -2.8617 3.01931
O -2.43638 -4.29182 1.21917
O 3.79719 -4.20304 4.65636
O 0.56707 -1.55781 6.035
C 3.83945 -5.38818 3.94349
C 3.07142 0.15973 5.36922
C 4.09558 0.91625 6.21571
C 5.37995 0.24431 5.77305
C 4.84347 -0.67799 4.67111
O 3.74373 0.02417 4.14162
H 3.01882 -1.27742 7.00696
H 4.83061 -2.43669 6.02262
H 2.10447 0.70761 5.34496
H 4.10385 1.97013 5.85667
H 3.91172 0.90575 7.31195
H 6.05215 1.02086 5.34521
H 5.91426 -0.32992 6.56106
H 5.65809 -0.92259 3.95457
O -1.07089 -5.41193 5.03402
C -2.2351 -3.03038 0.69812
C -4.49363 -6.28461 3.69288
C -4.95129 -7.73986 3.60239
C -3.7644 -8.44578 4.21873
C -2.91201 -7.24229 4.63218
O -3.85424 -6.24713 4.94399
H -3.61485 -6.58144 1.73487
H -1.66447 -7.42334 2.82406
H -1.82325 -2.35663 1.48004
H -5.37036 -5.6118 3.57039
H -5.82421 -7.8539 4.2847
H -5.23468 -8.08676 2.58547
H -4.11445 -8.99845 5.11924
H -3.21144 -9.13199 3.54175
H -2.22129 -7.54074 5.45148
H -3.19083 -2.61742 0.31093
H -1.50715 -3.09375 -0.13638
H 2.93312 -5.98417 4.17563
H 4.72533 -5.97419 4.26079
H 3.89142 -5.22531 2.84576
H -0.36893 -3.15736 4.64671
H 0.80753 -4.55838 5.14993
H 0.60814 -3.38807 2.32874
H 1.47799 -4.87627 2.79986
$end

$opt
CONSTRAINT
tors           1           2           3           4    -113.202
tors           3           4           5           6     -56.770
tors           4           5           6           7    -169.354
tors           5           6           7           8     -32.818
tors           6           7           8           9    +179.461
tors           7           8           9          10    +147.013
tors           8           9          10          11    +176.104
tors           9          10          11          12      -3.437
tors          11          12          13          14    +123.029
ENDCONSTRAINT
$end

$rem
JOBTYPE                   OPT
METHOD                    B3LYP
DFT_D                     d3_op
BASIS                     STO-3G
GEOM_OPT_MAX_CYCLES       100
GEOM_OPT_TOL_GRADIENT     300
GEOM_OPT_TOL_DISPLACEMENT 1200
GEOM_OPT_TOL_ENERGY       100
SYMMETRY                  False
THRESH                    12
SCF_CONVERGENCE           8
MAX_SUB_FILE_NUM          128
MEM_STATIC                400
MEM_TOTAL                 4000
$end
--------------------------------------------------------------

   16   -1510.0962044210      2.35E-09 Convergence criterion met
 Total energy in the final basis set = -1510.09620442
   14   -1510.1719439028      5.03E-09 Convergence criterion met
 Total energy in the final basis set = -1510.17194390
   15   -1510.2182391796      1.58E-09 Convergence criterion met
 Total energy in the final basis set = -1510.21823918
   14   -1510.2428902347      8.35E-09 Convergence criterion met
 Total energy in the final basis set = -1510.24289023
   14   -1510.2540523181      5.59E-09 Convergence criterion met
 Total energy in the final basis set = -1510.25405232
   14   -1510.2609596683      6.60E-09 Convergence criterion met
 Total energy in the final basis set = -1510.26095967
   13   -1510.2646688780      9.27E-09 Convergence criterion met
 Total energy in the final basis set = -1510.26466888
   13   -1510.2671688597      6.62E-09 Convergence criterion met
   11   -1510.2720077498      3.05E-09 Convergence criterion met
 Total energy in the final basis set = -1510.27200775
    9   -1510.2720198892      8.58E-09 Convergence criterion met
 Total energy in the final basis set = -1510.27201989
   10   -1510.2720178635      5.82E-09 Convergence criterion met
 Total energy in the final basis set = -1510.27201786
    9   -1510.2720205824      3.75E-09 Convergence criterion met
 Total energy in the final basis set = -1510.27202058
    9   -1510.2720231711      5.78E-09 Convergence criterion met
 Total energy in the final basis set = -1510.27202317
    9   -1510.2720241833      9.07E-09 Convergence criterion met
 Total energy in the final basis set = -1510.27202418

             Standard Nuclear Orientation (Angstroms)
    I     Atom           X                Y                Z
 ----------------------------------------------------------------
    1      O      -3.6591620931    -2.6863580830    -0.3891655522
    2      C      -3.6798942009    -1.8174625780     0.5099793530
    3      C      -4.6012547938    -0.5492083721     0.5791121070
    4      C      -3.8981012653     0.8722811272     0.4520745539
    5      C      -2.3980257691     0.8812265890    -0.0424210865
    6      O      -1.6353324874     0.0649751841     0.8401101328
    7      C      -0.1571750521     0.1305173538     0.7001930893
    8      C       0.4569331012     0.3751503636    -0.7256867376
    9      O       1.9205702132     0.3953351207    -0.4968739683
   10      C       2.6541085544    -0.1316171362    -1.6004662578
   11      C       4.1957254545     0.0141103742    -1.3269609736
   12      C       4.6063451680     0.7586173922     0.0103750249
   13      C       3.5028183272     1.6366318103     0.7036029090
   14      O       3.0759882394     1.5287192227     1.8739431374
   15      O      -2.9856676036    -1.9436753186     1.7556529539
   16      O       3.2017452217     2.7366091570    -0.1742726222
   17      O       2.1265793281    -0.6511622344    -2.6074752371
   18      C       2.1600629789     3.5964606514     0.4299564799
   19      C       4.7588574607    -1.4411150597    -1.0121591293
   20      C       6.3378788382    -1.4053920830    -0.9483462462
   21      C       6.5786635361    -0.7874556480     0.4799054900
   22      C       5.0978105400    -0.4565399795     0.9067812987
   23      O       4.3407333035    -1.6249222297     0.3977281988
   24      H       4.6657663176     0.4658903063    -2.2189909240
   25      H       5.4513804982     1.4381796532    -0.2065231051
   26      H       4.3309985216    -2.2354257720    -1.6547827848
   27      H       6.7496491423    -2.4239151819    -1.0272928959
   28      H       6.7659600959    -0.7891122567    -1.7551601324
   29      H       7.0210638285    -1.5263816022     1.1671558714
   30      H       7.2210601180     0.1070844025     0.4578567647
   31      H       4.9170552305    -0.3180731124     1.9906538610
   32      O      -1.9618272422     1.5656812586    -0.9939461997
   33      C      -2.1261493907    -3.1487389182     1.7339541176
   34      C      -5.6414719433    -0.4843077871    -0.6167964526
   35      C      -6.8751022037     0.3736801937    -0.1357563535
   36      C      -6.2406454295     1.8147831186    -0.1118364254
   37      C      -4.7943451148     1.5272371448    -0.6789124290
   38      O      -4.9915820741     0.3951810321    -1.6154148682
   39      H      -5.1276519026    -0.5988186535     1.5500126238
   40      H      -3.9444815984     1.4197689900     1.4115923915
   41      H      -1.3433565367    -3.0770417752     0.9513930937
   42      H      -5.8771316741    -1.4700793797    -1.0629176533
   43      H      -7.6958445432     0.3088666199    -0.8679814448
   44      H      -7.2524616805     0.0548761685     0.8491278869
   45      H      -6.7844497375     2.5089946088    -0.7716407713
   46      H      -6.2057126512     2.2458225185     0.9016986503
   47      H      -4.3013002721     2.3723472737    -1.1977572147
   48      H      -2.7171271060    -4.0704137264     1.5548148529
   49      H      -1.6480393487    -3.2007165281     2.7292875569
   50      H       1.2078551167     3.4761108319    -0.1253302567
   51      H       2.4907033586     4.6505538640     0.3602247036
   52      H       2.0113621561     3.3090964831     1.4908494290
   53      H       0.1946892979    -0.4316566876    -1.4430720531
   54      H       0.1088213569     1.3435977805    -1.1389075866
   55      H       0.2106577864    -0.8400531945     1.0929139777
   56      H       0.2222969386     0.9321393757     1.3740039721
 ----------------------------------------------------------------

    9   -1510.2720248525      4.01E-09 Convergence criterion met
 Total energy in the final basis set = -1510.27202485
 Final energy is   -1510.27202485248
 **  OPTIMIZATION CONVERGED  **

                    Orbital Energies (a.u.)
 --------------------------------------------------------------

 Alpha MOs
 -- Occupied --
-18.943 -18.943 -18.932 -18.922 -18.887 -18.884 -18.882 -18.879
-18.872 -18.865 -10.108 -10.106 -10.099 -10.097 -10.078 -10.071
-10.062 -10.061 -10.058 -10.056 -10.056 -10.054 -10.041 -10.040
-10.036 -10.036 -10.022 -10.020 -10.019 -10.018  -1.021  -1.016
 -1.007  -1.001  -0.971  -0.968  -0.946  -0.942  -0.932  -0.929
 -0.765  -0.762  -0.731  -0.722  -0.709  -0.705  -0.699  -0.661
 -0.657  -0.620  -0.598  -0.589  -0.545  -0.543  -0.538  -0.536
 -0.514  -0.509  -0.489  -0.472  -0.460  -0.459  -0.458  -0.442
 -0.439  -0.431  -0.429  -0.411  -0.409  -0.409  -0.406  -0.402
 -0.395  -0.381  -0.378  -0.370  -0.366  -0.356  -0.355  -0.346
 -0.343  -0.340  -0.337  -0.334  -0.333  -0.328  -0.323  -0.311
 -0.311  -0.308  -0.305  -0.301  -0.297  -0.296  -0.285  -0.274
 -0.272  -0.254  -0.246  -0.243  -0.240  -0.235  -0.232  -0.187
 -0.182  -0.172  -0.165  -0.160  -0.157  -0.150  -0.148  -0.146
 -0.142

          Ground-State Mulliken Net Atomic Charges

     Atom                 Charge (a.u.)
  ----------------------------------------
      1 O                    -0.213343
      2 C                     0.209367
      3 C                    -0.079845
      4 C                    -0.075851
      5 C                     0.212966
      6 O                    -0.166713
      7 C                    -0.048789
      8 C                    -0.055705
      9 O                    -0.171368
     10 C                     0.216440
     11 C                    -0.076099
     12 C                    -0.080257
     13 C                     0.223740
     14 O                    -0.226391
     15 O                    -0.164501
     16 O                    -0.177207
     17 O                    -0.211534
     18 C                    -0.136447
     19 C                     0.024238
     20 C                    -0.144872
     21 C                    -0.142593
     22 C                     0.023244
     23 O                    -0.192622
     24 H                     0.088618
     25 H                     0.083992
     26 H                     0.085555
     27 H                     0.078676
     28 H                     0.074241
     29 H                     0.078032
     30 H                     0.073507
     31 H                     0.090235
     32 O                    -0.212678
     33 C                    -0.127343
     34 C                     0.023406
     35 C                    -0.143021
     36 C                    -0.145234
     37 C                     0.023349
     38 O                    -0.189397
     39 H                     0.084808
     40 H                     0.085445
     41 H                     0.086993
     42 H                     0.089465
     43 H                     0.078138
     44 H                     0.072610
     45 H                     0.078201
     46 H                     0.072316
     47 H                     0.089676
     48 H                     0.088885
     49 H                     0.090217
     50 H                     0.081010
     51 H                     0.084191
     52 H                     0.097883
     53 H                     0.099859
     54 H                     0.106584
     55 H                     0.094764
     56 H                     0.091158
  ----------------------------------------
  Sum of atomic charges =     0.000000

                    Cartesian Multipole Moments
 -----------------------------------------------------------------
    Charge (ESU x 10^10)
                 0.0000
    Dipole Moment (Debye)
         X       0.7178      Y       1.2289      Z       2.1426
       Tot       2.5722
    Quadrupole Moments (Debye-Ang)
        XX    -136.6124     XY      -3.0348     YY    -156.1760
        XZ     -12.3008     YZ      -1.7874     ZZ    -169.9409

 Total job time:  69.28s(wall), 3292.19s(cpu)
        *  Thank you very much for using Q-Chem.  Have a nice day.  *
