 Q-Chem 5.0, Q-Chem, Inc., Pleasanton, CA (2017)
 Q-Chem 5.0.1 for Intel X86 EM64T Linux

User input:
--------------------------------------------------------------
$molecule
0  1
O -3.6428534553 0.3595677584 2.5412907347
C -3.8374639061 0.9857905692 1.4772575248
C -4.7455157877 0.5640651178 0.2699594892
C -3.9781429063 -0.0648392382 -0.9729832683
C -2.4709218336 -0.4585375718 -0.7230859086
O -1.7852138114 0.6916017236 -0.2247312264
C -0.3071744937 0.6704825621 -0.3701017578
C 0.4250537998 -0.6658517553 0.0080283505
O 1.8682050745 -0.4066979288 -0.2328502966
C 2.6567642077 -1.4521725067 0.3344095258
C 4.1840059862 -1.2686747562 0.0178078262
C 4.6651107936 0.0266719444 -0.7627482083
C 3.5674350427 1.018885187 -1.2916475873
O 3.1447405689 2.0636223383 -0.7534186552
O -3.3549979582 2.3117792513 1.2255107911
O 3.2062947266 0.5890609082 -2.6144351192
O 2.1767698341 -2.3950023258 1.0016301286
C 2.2695395459 1.55534633 -3.2268387168
C 4.9857504174 -1.1017732713 1.3839545479
C 6.5164345172 -1.3868104748 1.11633049
C 6.9533302187 -0.0578730093 0.3953433621
C 5.5801390673 0.7177791945 0.3387861259
O 4.9296902934 0.3576682715 1.6196409304
H 4.5089472678 -2.1816895316 -0.5142190994
H 5.2639675931 -0.2805154202 -1.6384942323
H 4.5406139775 -1.6564938841 2.2330972905
H 7.0539395366 -1.5293425632 2.0672777742
H 6.6649703752 -2.2799201126 0.4884175673
H 7.6874217653 0.5038731054 0.9946885391
H 7.3750798659 -0.2336681256 -0.6071647417
H 5.6525757894 1.8182678211 0.2411966355
O -1.9611980597 -1.5627193151 -1.0151917943
C -2.4529587204 2.73469145 2.3199299627
C -5.7576485938 -0.6068760508 0.6225467931
C -6.9555011934 -0.5295535495 -0.4022337654
C -6.2545965067 -1.0374944997 -1.7178024306
C -4.8127743853 -1.3954367662 -1.1818832172
O -5.0459942396 -1.8391592272 0.2131687926
H -5.2872276668 1.4701373919 -0.0563092133
H -4.0142512014 0.6117935325 -1.8468812294
H -1.5550269651 2.0861769513 2.3765060052
H -6.0388278857 -0.6598156433 1.6921437375
H -7.7672667518 -1.2072954712 -0.092919059
H -7.3621147854 0.4897162077 -0.4989267154
H -6.7505614535 -1.9336125969 -2.1230047258
H -6.2216482543 -0.2669851656 -2.5049386441
H -4.264832719 -2.1748401595 -1.7462568456
H -2.9638717671 2.7146470192 3.3043513952
H -2.1457590671 3.7695284537 2.0815271815
H 1.9708285431 1.1216410727 -4.1989782512
H 2.7525028644 2.5400885082 -3.3955458714
H 1.3694971975 1.7144687671 -2.5997601872
H 0.245643431 -0.9318095966 1.0715819197
H 0.0405412935 -1.4918360922 -0.6265447748
H 0.0595406881 1.4965661734 0.2729323144
H -0.0550906546 0.9181670552 -1.4250905338
$end

$rem
JOBTYPE                   OPT
METHOD                    B3LYP
DFT_D                     d3_op
BASIS                     STO-3G
GEOM_OPT_MAX_CYCLES       100
GEOM_OPT_TOL_GRADIENT     300
GEOM_OPT_TOL_DISPLACEMENT 1200
GEOM_OPT_TOL_ENERGY       100
SYMMETRY                  False
THRESH                    12
SCF_CONVERGENCE           8
MAX_SUB_FILE_NUM          128
MEM_STATIC                400
MEM_TOTAL                 4000
$end
--------------------------------------------------------------

   16   -1510.2723454233      5.14E-09 Convergence criterion met
 Total energy in the final basis set = -1510.27234542
   14   -1510.2757457284      7.66E-09 Convergence criterion met
 Total energy in the final basis set = -1510.27574573
   14   -1510.2785040480      8.54E-09 Convergence criterion met
 Total energy in the final basis set = -1510.27850405
   14   -1510.2809377127      3.26E-09 Convergence criterion met
 Total energy in the final basis set = -1510.28093771
   14   -1510.2821889890      2.89E-09 Convergence criterion met
 Total energy in the final basis set = -1510.28218899
   14   -1510.2833298824      5.50E-09 Convergence criterion met
 Total energy in the final basis set = -1510.28332988
   14   -1510.2837976038      3.62E-09 Convergence criterion met
 Total energy in the final basis set = -1510.28379760
   13   -1510.2848552988      4.58E-09 Convergence criterion met
   12   -1510.3010962202      4.05E-09 Convergence criterion met
 Total energy in the final basis set = -1510.30109622
   12   -1510.3011057189      4.15E-09 Convergence criterion met
 Total energy in the final basis set = -1510.30110572
   12   -1510.3011130110      2.58E-09 Convergence criterion met
 Total energy in the final basis set = -1510.30111301
   11   -1510.3011223209      4.48E-09 Convergence criterion met
 Total energy in the final basis set = -1510.30112232
    9   -1510.3011254808      7.49E-09 Convergence criterion met
 Total energy in the final basis set = -1510.30112548
    9   -1510.3011267146      7.23E-09 Convergence criterion met
 Total energy in the final basis set = -1510.30112671

             Standard Nuclear Orientation (Angstroms)
    I     Atom           X                Y                Z
 ----------------------------------------------------------------
    1      O      -1.4380526003    -0.8982128203     0.6253356581
    2      C      -2.2532191149    -0.0475032870     1.0627532351
    3      C      -3.7134966383     0.1946199070     0.5536848194
    4      C      -3.8914446848     0.0551551811    -1.0162374996
    5      C      -2.5716520645    -0.2667760990    -1.8049158889
    6      O      -1.7078406962     0.8754282411    -1.7381202623
    7      C      -0.4262896935     0.5790619448    -2.4277818778
    8      C       0.4136018680    -0.5114467631    -1.6439751884
    9      O       1.8124730003    -0.1027863489    -1.3724037292
   10      C       1.8716622896     0.8475722163    -0.3090075325
   11      C       3.3781029171     1.1229308379     0.0187869580
   12      C       4.1547950255    -0.1829039522     0.4781829345
   13      C       3.2437447849    -1.4620766565     0.5251090057
   14      O       3.4559804937    -2.5666056749    -0.0178512643
   15      O      -2.0133311340     0.8226875340     2.1559915147
   16      O       2.0990317721    -1.1481423768     1.3258312321
   17      O       0.8681322594     1.3770603396     0.2227385352
   18      C       1.1519282736    -2.2895567392     1.3844507620
   19      C       4.2065732291     1.5074995251    -1.2833505636
   20      C       5.5986772693     2.1020160165    -0.8278969250
   21      C       6.3607600057     0.7953549656    -0.3910442317
   22      C       5.2564780180    -0.3017038654    -0.6526988983
   23      O       4.5602010699     0.1936160585    -1.8641030972
   24      H       3.4208637927     1.9150692801     0.7865083891
   25      H       4.6067025493    -0.0383526019     1.4767754742
   26      H       3.6493565935     2.1201367081    -2.0183247008
   27      H       6.0993995211     2.5997056958    -1.6736423600
   28      H       5.4898498756     2.8264624090    -0.0049526072
   29      H       7.2435735217     0.6118956406    -1.0241053856
   30      H       6.6813780149     0.8212771945     0.6627860341
   31      H       5.6229008165    -1.3342852300    -0.8133008021
   32      O      -2.3114295702    -1.3098073929    -2.4419742169
   33      C      -0.6172575990     0.6847032786     2.6481714752
   34      C      -4.6826524510    -0.9662503054     1.0593482705
   35      C      -6.1761220471    -0.4908988548     0.8586839036
   36      C      -6.3400163552    -0.6506334630    -0.6988890236
   37      C      -4.9032106735    -1.1626588487    -1.1030372087
   38      O      -4.5059341203    -2.0203329295     0.0384779573
   39      H      -4.0436515137     1.1833727481     0.9171865403
   40      H      -4.3260861981     0.9817926446    -1.4335442235
   41      H      -0.5199278548     1.4159523716     3.4706257200
   42      H      -4.4437418869    -1.3553882599     2.0682099361
   43      H      -6.8659694468    -1.1510081171     1.4081793449
   44      H      -6.3299571984     0.5450163559     1.2005452234
   45      H      -7.1026637256    -1.4052384298    -0.9488194705
   46      H      -6.6002592617     0.2950517056    -1.2002554979
   47      H      -4.8379149721    -1.7316414789    -2.0506404166
   48      H       0.1018850559     0.9235896224     1.8283363094
   49      H      -0.4260213524    -0.3354509996     3.0358375817
   50      H       0.1317868704    -1.8806251852     1.2127351007
   51      H       1.2103534569    -2.7638635224     2.3845437368
   52      H       1.4134002802    -3.0380487127     0.6112156163
   53      H      -0.1299543304    -0.7319600384    -0.6951799795
   54      H       0.4973428965    -1.4366531555    -2.2455166134
   55      H       0.1195278873     1.5433299718    -2.4517976239
   56      H      -0.6150681908     0.2440234460    -3.4697680836
 ----------------------------------------------------------------

    9   -1510.3011274310      5.80E-09 Convergence criterion met
 Total energy in the final basis set = -1510.30112743
 Final energy is   -1510.30112743103
 **  OPTIMIZATION CONVERGED  **

                    Orbital Energies (a.u.)
 --------------------------------------------------------------

 Alpha MOs
 -- Occupied --
-18.943 -18.933 -18.928 -18.925 -18.889 -18.886 -18.883 -18.875
-18.872 -18.872 -10.110 -10.102 -10.096 -10.096 -10.066 -10.063
-10.060 -10.058 -10.056 -10.053 -10.048 -10.040 -10.040 -10.037
-10.037 -10.036 -10.022 -10.020 -10.020 -10.019  -1.018  -1.014
 -1.007  -1.001  -0.972  -0.968  -0.942  -0.936  -0.932  -0.931
 -0.764  -0.762  -0.727  -0.723  -0.710  -0.705  -0.690  -0.660
 -0.650  -0.615  -0.596  -0.582  -0.545  -0.545  -0.538  -0.536
 -0.514  -0.509  -0.478  -0.471  -0.463  -0.460  -0.454  -0.438
 -0.435  -0.431  -0.430  -0.419  -0.413  -0.406  -0.404  -0.398
 -0.383  -0.375  -0.368  -0.365  -0.363  -0.361  -0.354  -0.348
 -0.342  -0.339  -0.332  -0.330  -0.330  -0.325  -0.321  -0.311
 -0.308  -0.305  -0.305  -0.303  -0.291  -0.287  -0.282  -0.279
 -0.270  -0.258  -0.249  -0.243  -0.236  -0.235  -0.233  -0.192
 -0.178  -0.171  -0.161  -0.159  -0.156  -0.150  -0.148  -0.145
 -0.142

          Ground-State Mulliken Net Atomic Charges

     Atom                 Charge (a.u.)
  ----------------------------------------
      1 O                    -0.221697
      2 C                     0.225324
      3 C                    -0.078042
      4 C                    -0.079257
      5 C                     0.211043
      6 O                    -0.172886
      7 C                    -0.049973
      8 C                    -0.064575
      9 O                    -0.168259
     10 C                     0.218871
     11 C                    -0.079134
     12 C                    -0.077855
     13 C                     0.214338
     14 O                    -0.211182
     15 O                    -0.163412
     16 O                    -0.179386
     17 O                    -0.222300
     18 C                    -0.149600
     19 C                     0.026143
     20 C                    -0.143956
     21 C                    -0.143914
     22 C                     0.024496
     23 O                    -0.184858
     24 H                     0.083709
     25 H                     0.083810
     26 H                     0.081570
     27 H                     0.077850
     28 H                     0.073072
     29 H                     0.078214
     30 H                     0.072814
     31 H                     0.091128
     32 O                    -0.211693
     33 C                    -0.142764
     34 C                     0.025782
     35 C                    -0.143648
     36 C                    -0.144122
     37 C                     0.025030
     38 O                    -0.187004
     39 H                     0.088873
     40 H                     0.085158
     41 H                     0.086257
     42 H                     0.082556
     43 H                     0.078543
     44 H                     0.074379
     45 H                     0.078612
     46 H                     0.073615
     47 H                     0.090794
     48 H                     0.117615
     49 H                     0.082679
     50 H                     0.108941
     51 H                     0.076278
     52 H                     0.096175
     53 H                     0.113182
     54 H                     0.094869
     55 H                     0.089662
     56 H                     0.088138
  ----------------------------------------
  Sum of atomic charges =    -0.000000

                    Cartesian Multipole Moments
 -----------------------------------------------------------------
    Charge (ESU x 10^10)
                -0.0000
    Dipole Moment (Debye)
         X      -0.5981      Y       3.0201      Z       1.8103
       Tot       3.5716
    Quadrupole Moments (Debye-Ang)
        XX    -140.3533     XY       3.5871     YY    -166.8559
        XZ       5.2602     YZ      -6.3785     ZZ    -157.0858

 Total job time:  229.19s(wall), 10936.10s(cpu)
        *  Thank you very much for using Q-Chem.  Have a nice day.  *
