 Q-Chem 5.0, Q-Chem, Inc., Pleasanton, CA (2017)
 Q-Chem 5.0.1 for Intel X86 EM64T Linux

User input:
--------------------------------------------------------------
$molecule
0  1
O -3.94934 -3.66094 2.70899
C -3.26408 -4.56952 2.26188
C -3.36658 -6.02376 2.66595
C -2.32418 -6.5503 3.66596
C -1.40489 -5.52159 4.28624
O -0.78028 -4.80579 3.30496
C 0.41217 -4.15433 3.75541
C 0.16861 -3.48652 5.1048
O 1.36882 -2.83762 5.55345
C 1.21898 -1.99984 6.60929
C 2.52797 -1.42193 7.09223
C 3.75486 -1.80835 6.25336
C 3.46281 -2.39805 4.88821
O 3.45103 -1.77665 3.83545
O -2.35247 -4.28294 1.29457
O 3.62484 -3.75053 4.81048
O 0.14812 -1.75893 7.15281
C 3.87329 -4.44081 3.6393
C 2.60623 0.1137 7.03895
C 3.64658 0.59934 8.04995
C 4.92687 0.14385 7.37903
C 4.36575 -0.40406 6.0614
O 3.23249 0.39306 5.81253
H 2.63261 -1.75406 8.14986
H 4.4545 -2.49141 6.78512
H 1.62864 0.61156 7.21836
H 3.61842 1.7123 8.04262
H 3.50635 0.23814 9.0919
H 5.56378 1.03731 7.19491
H 5.50532 -0.62978 7.92964
H 5.1526 -0.39236 5.27484
O -1.69319 -5.15664 5.4156
C -2.14267 -3.02386 0.77236
C -4.66295 -6.32471 3.45716
C -5.02301 -7.80441 3.32008
C -3.9509 -8.43432 4.18108
C -3.2613 -7.17867 4.72289
O -4.29405 -6.23004 4.80976
H -3.42001 -6.60939 1.7206
H -1.66124 -7.31928 3.21154
H -1.81552 -2.32684 1.57313
H -5.52741 -5.7006 3.1408
H -6.00828 -7.95117 3.81811
H -5.08067 -8.18721 2.27837
H -4.44672 -8.99165 5.00703
H -3.23791 -9.09884 3.64697
H -2.73282 -7.41871 5.67194
H -3.07529 -2.64554 0.30123
H -1.34968 -3.0787 -0.00128
H 3.86407 -5.53016 3.84897
H 4.86849 -4.15787 3.23828
H 3.10542 -4.21378 2.8712
H -0.66338 -2.75286 4.99226
H 0.05455 -4.18071 5.95285
H 0.72662 -3.41107 2.99285
H 1.20492 -4.91778 3.8868
$end

$opt
CONSTRAINT
tors           1           2           3           4    -100.497
tors           3           4           5           6     -54.557
tors           4           5           6           7    -159.726
tors           5           6           7           8     -44.574
tors           6           7           8           9    +179.851
tors           7           8           9          10    +168.063
tors           8           9          10          11    +176.104
tors           9          10          11          12      +3.893
tors          11          12          13          14     +96.421
ENDCONSTRAINT
$end

$rem
JOBTYPE                   OPT
METHOD                    B3LYP
DFT_D                     d3_op
BASIS                     STO-3G
GEOM_OPT_MAX_CYCLES       100
GEOM_OPT_TOL_GRADIENT     300
GEOM_OPT_TOL_DISPLACEMENT 1200
GEOM_OPT_TOL_ENERGY       100
SYMMETRY                  False
THRESH                    12
SCF_CONVERGENCE           8
MAX_SUB_FILE_NUM          128
MEM_STATIC                400
MEM_TOTAL                 4000
$end
--------------------------------------------------------------

   15   -1510.1141671823      6.06E-09 Convergence criterion met
 Total energy in the final basis set = -1510.11416718
   14   -1510.1884762919      7.70E-09 Convergence criterion met
 Total energy in the final basis set = -1510.18847629
   14   -1510.2286718646      8.21E-09 Convergence criterion met
 Total energy in the final basis set = -1510.22867186
   14   -1510.2488509230      4.41E-09 Convergence criterion met
 Total energy in the final basis set = -1510.24885092
   15   -1510.2596416555      1.84E-09 Convergence criterion met
 Total energy in the final basis set = -1510.25964166
   14   -1510.2656401915      3.49E-09 Convergence criterion met
 Total energy in the final basis set = -1510.26564019
   13   -1510.2692828224      7.05E-09 Convergence criterion met
 Total energy in the final basis set = -1510.26928282
   13   -1510.2710984421      4.08E-09 Convergence criterion met
   10   -1510.2723469141      3.98E-09 Convergence criterion met
 Total energy in the final basis set = -1510.27234691
    9   -1510.2723497922      5.43E-09 Convergence criterion met
 Total energy in the final basis set = -1510.27234979
    9   -1510.2723521208      6.40E-09 Convergence criterion met
 Total energy in the final basis set = -1510.27235212
   10   -1510.2723571765      9.43E-09 Convergence criterion met
 Total energy in the final basis set = -1510.27235718
    9   -1510.2723609406      6.15E-09 Convergence criterion met
 Total energy in the final basis set = -1510.27236094
   10   -1510.2723662051      3.40E-09 Convergence criterion met
 Total energy in the final basis set = -1510.27236621

             Standard Nuclear Orientation (Angstroms)
    I     Atom           X                Y                Z
 ----------------------------------------------------------------
    1      O      -3.6428534553     0.3595677584     2.5412907347
    2      C      -3.8374639061     0.9857905692     1.4772575248
    3      C      -4.7455157877     0.5640651178     0.2699594892
    4      C      -3.9781429063    -0.0648392382    -0.9729832683
    5      C      -2.4709218336    -0.4585375718    -0.7230859086
    6      O      -1.7852138114     0.6916017236    -0.2247312264
    7      C      -0.3071744937     0.6704825621    -0.3701017578
    8      C       0.4250537998    -0.6658517553     0.0080283505
    9      O       1.8682050745    -0.4066979288    -0.2328502966
   10      C       2.6567642077    -1.4521725067     0.3344095258
   11      C       4.1840059862    -1.2686747562     0.0178078262
   12      C       4.6651107936     0.0266719444    -0.7627482083
   13      C       3.5674350427     1.0188851870    -1.2916475873
   14      O       3.1447405689     2.0636223383    -0.7534186552
   15      O      -3.3549979582     2.3117792513     1.2255107911
   16      O       3.2062947266     0.5890609082    -2.6144351192
   17      O       2.1767698341    -2.3950023258     1.0016301286
   18      C       2.2695395459     1.5553463300    -3.2268387168
   19      C       4.9857504174    -1.1017732713     1.3839545479
   20      C       6.5164345172    -1.3868104748     1.1163304900
   21      C       6.9533302187    -0.0578730093     0.3953433621
   22      C       5.5801390673     0.7177791945     0.3387861259
   23      O       4.9296902934     0.3576682715     1.6196409304
   24      H       4.5089472678    -2.1816895316    -0.5142190994
   25      H       5.2639675931    -0.2805154202    -1.6384942323
   26      H       4.5406139775    -1.6564938841     2.2330972905
   27      H       7.0539395366    -1.5293425632     2.0672777742
   28      H       6.6649703752    -2.2799201126     0.4884175673
   29      H       7.6874217653     0.5038731054     0.9946885391
   30      H       7.3750798659    -0.2336681256    -0.6071647417
   31      H       5.6525757894     1.8182678211     0.2411966355
   32      O      -1.9611980597    -1.5627193151    -1.0151917943
   33      C      -2.4529587204     2.7346914500     2.3199299627
   34      C      -5.7576485938    -0.6068760508     0.6225467931
   35      C      -6.9555011934    -0.5295535495    -0.4022337654
   36      C      -6.2545965067    -1.0374944997    -1.7178024306
   37      C      -4.8127743853    -1.3954367662    -1.1818832172
   38      O      -5.0459942396    -1.8391592272     0.2131687926
   39      H      -5.2872276668     1.4701373919    -0.0563092133
   40      H      -4.0142512014     0.6117935325    -1.8468812294
   41      H      -1.5550269651     2.0861769513     2.3765060052
   42      H      -6.0388278857    -0.6598156433     1.6921437375
   43      H      -7.7672667518    -1.2072954712    -0.0929190590
   44      H      -7.3621147854     0.4897162077    -0.4989267154
   45      H      -6.7505614535    -1.9336125969    -2.1230047258
   46      H      -6.2216482543    -0.2669851656    -2.5049386441
   47      H      -4.2648327190    -2.1748401595    -1.7462568456
   48      H      -2.9638717671     2.7146470192     3.3043513952
   49      H      -2.1457590671     3.7695284537     2.0815271815
   50      H       1.9708285431     1.1216410727    -4.1989782512
   51      H       2.7525028644     2.5400885082    -3.3955458714
   52      H       1.3694971975     1.7144687671    -2.5997601872
   53      H       0.2456434310    -0.9318095966     1.0715819197
   54      H       0.0405412935    -1.4918360922    -0.6265447748
   55      H       0.0595406881     1.4965661734     0.2729323144
   56      H      -0.0550906546     0.9181670552    -1.4250905338
 ----------------------------------------------------------------

    9   -1510.2723668092      5.37E-09 Convergence criterion met
 Total energy in the final basis set = -1510.27236681
 Final energy is   -1510.27236680923
 **  OPTIMIZATION CONVERGED  **

                    Orbital Energies (a.u.)
 --------------------------------------------------------------

 Alpha MOs
 -- Occupied --
-18.944 -18.940 -18.929 -18.927 -18.889 -18.887 -18.885 -18.874
-18.871 -18.867 -10.111 -10.102 -10.097 -10.096 -10.081 -10.068
-10.063 -10.060 -10.059 -10.058 -10.057 -10.057 -10.041 -10.040
-10.036 -10.035 -10.020 -10.020 -10.019 -10.019  -1.021  -1.015
 -1.005  -1.003  -0.970  -0.969  -0.949  -0.938  -0.931  -0.930
 -0.764  -0.762  -0.730  -0.722  -0.710  -0.705  -0.700  -0.663
 -0.660  -0.618  -0.597  -0.589  -0.545  -0.544  -0.538  -0.537
 -0.514  -0.510  -0.487  -0.471  -0.461  -0.459  -0.457  -0.444
 -0.437  -0.430  -0.430  -0.413  -0.411  -0.408  -0.407  -0.402
 -0.391  -0.384  -0.379  -0.369  -0.368  -0.358  -0.350  -0.347
 -0.344  -0.338  -0.335  -0.332  -0.331  -0.329  -0.324  -0.312
 -0.310  -0.307  -0.305  -0.300  -0.298  -0.293  -0.286  -0.275
 -0.271  -0.252  -0.251  -0.248  -0.243  -0.234  -0.233  -0.187
 -0.183  -0.172  -0.171  -0.159  -0.155  -0.148  -0.146  -0.144
 -0.143

          Ground-State Mulliken Net Atomic Charges

     Atom                 Charge (a.u.)
  ----------------------------------------
      1 O                    -0.213476
      2 C                     0.210588
      3 C                    -0.080117
      4 C                    -0.075876
      5 C                     0.215124
      6 O                    -0.170310
      7 C                    -0.046593
      8 C                    -0.056885
      9 O                    -0.171360
     10 C                     0.211642
     11 C                    -0.077715
     12 C                    -0.081481
     13 C                     0.218675
     14 O                    -0.218327
     15 O                    -0.167422
     16 O                    -0.173320
     17 O                    -0.212992
     18 C                    -0.127880
     19 C                     0.025157
     20 C                    -0.144162
     21 C                    -0.143863
     22 C                     0.025064
     23 O                    -0.189430
     24 H                     0.086790
     25 H                     0.084427
     26 H                     0.087417
     27 H                     0.078578
     28 H                     0.073850
     29 H                     0.077944
     30 H                     0.073110
     31 H                     0.086705
     32 O                    -0.206454
     33 C                    -0.127399
     34 C                     0.024333
     35 C                    -0.143028
     36 C                    -0.145073
     37 C                     0.023322
     38 O                    -0.188366
     39 H                     0.084944
     40 H                     0.085287
     41 H                     0.087297
     42 H                     0.088078
     43 H                     0.078273
     44 H                     0.072899
     45 H                     0.078459
     46 H                     0.072327
     47 H                     0.090113
     48 H                     0.088833
     49 H                     0.089368
     50 H                     0.088437
     51 H                     0.085750
     52 H                     0.083881
     53 H                     0.094558
     54 H                     0.109909
     55 H                     0.097927
     56 H                     0.082462
  ----------------------------------------
  Sum of atomic charges =     0.000000

                    Cartesian Multipole Moments
 -----------------------------------------------------------------
    Charge (ESU x 10^10)
                 0.0000
    Dipole Moment (Debye)
         X       0.2741      Y       1.9354      Z      -3.0921
       Tot       3.6582
    Quadrupole Moments (Debye-Ang)
        XX    -136.8557     XY     -10.6514     YY    -166.6195
        XZ       2.1889     YZ       1.7062     ZZ    -158.1071

 Total job time:  70.44s(wall), 3350.97s(cpu)
        *  Thank you very much for using Q-Chem.  Have a nice day.  *
