 Q-Chem 5.0, Q-Chem, Inc., Pleasanton, CA (2017)
 Q-Chem 5.0.1 for Intel X86 EM64T Linux

User input:
--------------------------------------------------------------
$molecule
0  1
O -3.2637125662 0.518303326 2.3375661111
C -3.666854973 1.0653390673 1.2893674446
C -4.6845586084 0.4968918158 0.2358956791
C -4.0683736984 -0.3029068108 -0.9893419031
C -2.5133038659 -0.555851455 -1.0069983909
O -1.867437533 0.4292214764 -0.2079191146
C -0.3848832655 0.48352062 -0.2880093598
C 0.3902748907 -0.8770193146 -0.4051194296
O 1.8278545459 -0.5103083526 -0.4695011588
C 2.6319906729 -1.5090188693 0.1608764255
C 4.161057255 -1.2279927147 -0.0475577331
C 4.6170074096 0.1511989336 -0.6862879711
C 3.5078434535 1.2460537792 -0.8906157584
O 2.9778623274 1.9816308447 -0.0315214029
O -3.383858829 2.4272255634 0.9290596673
O 3.260912481 1.3479067112 -2.3026402669
O 2.1641935922 -2.4848117411 0.7887481576
C 2.2807086553 2.4222047929 -2.5716563293
C 4.9387036525 -1.2008480009 1.3416074784
C 6.4494718539 -1.5612010782 1.0634173562
C 6.9461907564 -0.2412488536 0.3646387529
C 5.6418652822 0.6489817457 0.4247045467
O 4.9868452999 0.236475155 1.6874386027
H 4.5401265804 -2.061357221 -0.6684701393
H 5.1064773278 -0.0164387412 -1.6616425007
H 4.4468209475 -1.7848953756 2.1438293795
H 6.9812876316 -1.7410259447 2.0114267987
H 6.5556673559 -2.4510532321 0.4227341266
H 7.7643717529 0.2343839707 0.9282240701
H 7.2822125804 -0.4095446869 -0.6710402418
H 5.8165954921 1.7421923409 0.4227018875
O -1.9555743337 -1.4478287042 -1.6839811526
C -2.4395248841 3.0173188573 1.9028198226
C -5.6269623834 -0.6173614021 0.8686596534
C -6.9173924696 -0.7436449061 -0.0329576957
C -6.3340716671 -1.4905423362 -1.2900264003
C -4.8286062389 -1.6900770403 -0.8553163446
O -4.9037539084 -1.8832615838 0.6101546846
H -5.2736531809 1.3523682527 -0.1396115245
H -4.3200507279 0.1983605971 -1.9428072918
H -1.4551837638 2.5071342543 1.8769263819
H -5.8106931582 -0.4945047061 1.9536096244
H -7.6831921904 -1.3496532099 0.4769030867
H -7.3514733013 0.2377202476 -0.2824129331
H -6.8236085542 -2.4648050377 -1.4468139643
H -6.4209848812 -0.8980031253 -2.2148342657
H -4.2967218171 -2.5337234136 -1.3376397012
H -2.8323596304 2.9651205036 2.9388516928
H -2.3124053761 4.074842805 1.606693451
H 2.0980538969 2.4064278775 -3.6619379005
H 2.6725659938 3.4175360033 -2.2767804314
H 1.3261385632 2.2523619879 -2.0339803273
H 0.2081897301 -1.5355724676 0.4705985571
H 0.075499863 -1.4098635485 -1.3259809842
H -0.0645101702 1.0146595048 0.6316443538
H -0.1111015798 1.1158193448 -1.1619839052
$end

$rem
JOBTYPE                   OPT
METHOD                    B3LYP
DFT_D                     d3_op
BASIS                     STO-3G
GEOM_OPT_MAX_CYCLES       100
GEOM_OPT_TOL_GRADIENT     300
GEOM_OPT_TOL_DISPLACEMENT 1200
GEOM_OPT_TOL_ENERGY       100
SYMMETRY                  False
THRESH                    12
SCF_CONVERGENCE           8
MAX_SUB_FILE_NUM          128
MEM_STATIC                400
MEM_TOTAL                 4000
$end
--------------------------------------------------------------

   16   -1510.2734998155      5.11E-09 Convergence criterion met
 Total energy in the final basis set = -1510.27349982
   14   -1510.2760940647      8.42E-09 Convergence criterion met
 Total energy in the final basis set = -1510.27609406
   14   -1510.2785090037      2.76E-09 Convergence criterion met
 Total energy in the final basis set = -1510.27850900
   14   -1510.2803032579      3.75E-09 Convergence criterion met
 Total energy in the final basis set = -1510.28030326
   14   -1510.2821725071      5.75E-09 Convergence criterion met
 Total energy in the final basis set = -1510.28217251
   14   -1510.2840106069      6.89E-09 Convergence criterion met
 Total energy in the final basis set = -1510.28401061
   14   -1510.2854788031      4.75E-09 Convergence criterion met
 Total energy in the final basis set = -1510.28547880
   14   -1510.2867724322      4.93E-09 Convergence criterion met
   12   -1510.2984455561      9.74E-09 Convergence criterion met
 Total energy in the final basis set = -1510.29844556
   12   -1510.2984507234      2.32E-09 Convergence criterion met
 Total energy in the final basis set = -1510.29845072
   12   -1510.2984393992      4.06E-09 Convergence criterion met
 Total energy in the final basis set = -1510.29843940
   10   -1510.2984509098      7.16E-09 Convergence criterion met
 Total energy in the final basis set = -1510.29845091
   11   -1510.2984522784      2.53E-09 Convergence criterion met
 Total energy in the final basis set = -1510.29845228
    9   -1510.2984466717      7.30E-09 Convergence criterion met
 Total energy in the final basis set = -1510.29844667

             Standard Nuclear Orientation (Angstroms)
    I     Atom           X                Y                Z
 ----------------------------------------------------------------
    1      O      -1.9636218766    -0.7280226407     1.2992672744
    2      C      -2.5931830610     0.3241717648     1.0402513744
    3      C      -4.0212352063     0.4447260595     0.3932648579
    4      C      -4.0807037724     0.0388210156    -1.1419295013
    5      C      -2.7182675572    -0.4862003277    -1.7192365112
    6      O      -1.6876430486     0.4357999679    -1.3527787121
    7      C      -0.3515028988    -0.1001891193    -1.7098495433
    8      C       0.0154234139    -1.3684178042    -0.8429819993
    9      O       1.4893034829    -1.4664301860    -0.7085284109
   10      C       1.9396988292    -0.8729479125     0.5106913472
   11      C       3.5104840158    -0.9317399225     0.5234671455
   12      C       4.2027442411     0.0738085076    -0.4874549154
   13      C       3.1818405169     0.9981090153    -1.2261184839
   14      O       2.0563366369     1.3625107387    -0.8104890307
   15      O      -2.1423476275     1.6433931186     1.3345338682
   16      O       3.7458466455     1.4102932147    -2.4696166776
   17      O       1.2008182492    -0.4732896788     1.4378787081
   18      C       2.8095427463     2.3131454390    -3.1823405481
   19      C       4.0918633786    -0.4251877002     1.9080052525
   20      C       5.5854516912    -0.9183537399     2.0321951182
   21      C       6.3025073971     0.0330986626     1.0030859188
   22      C       5.0940049006     0.9285752159     0.5188341753
   23      O       4.2292915696     1.0381720522     1.7129123403
   24      H       3.8175640441    -1.9701390536     0.3035930684
   25      H       4.8201970134    -0.4456561662    -1.2408822623
   26      H       3.4351476271    -0.6362108389     2.7741669265
   27      H       5.9584156121    -0.7583583291     3.0562471963
   28      H       5.6961828010    -1.9843901530     1.7771009099
   29      H       7.0691134367     0.6550843910     1.4917464121
   30      H       6.7707301765    -0.5153132647     0.1701595825
   31      H       5.3730175566     1.9324472446     0.1433058509
   32      O      -2.5334708221    -1.5245974880    -2.3894911778
   33      C      -0.8090219404     1.6281695859     1.9857231457
   34      C      -5.0408184105    -0.6095971890     1.0081386907
   35      C      -6.5083879485    -0.1482204040     0.6473331944
   36      C      -6.5779288426    -0.5230575164    -0.8806893158
   37      C      -5.1417010774    -1.1357764732    -1.1088791217
   38      O      -4.8426148295    -1.8155828636     0.1733254887
   39      H      -4.3691390227     1.4822740800     0.5380557736
   40      H      -4.4210660494     0.8909138315    -1.7590693730
   41      H      -0.1672593236     0.7852010687     1.6388614974
   42      H      -4.8679449626    -0.8469346493     2.0756905513
   43      H      -7.2456969845    -0.7172001688     1.2358889395
   44      H      -6.6635898133     0.9269646899     0.8305017634
   45      H      -7.3550652034    -1.2789574659    -1.0758933814
   46      H      -6.7658023525     0.3507174083    -1.5250325132
   47      H      -5.0427678449    -1.8442015867    -1.9542758032
   48      H      -0.9284224720     1.5525116289     3.0860138211
   49      H      -0.3332693690     2.5958026355     1.7418477501
   50      H       3.3227291392     2.6068829121    -4.1162077519
   51      H       2.5789865987     3.2167841259    -2.5821955368
   52      H       1.8580969343     1.7990618049    -3.4279730649
   53      H      -0.4829934397    -1.2716091837     0.1524974364
   54      H      -0.3227064619    -2.2955260613    -1.3453666604
   55      H       0.3750419767     0.7092049448    -1.4685136555
   56      H      -0.3008858973    -0.3391429312    -2.7932916187
 ----------------------------------------------------------------

    9   -1510.2984465540      9.58E-09 Convergence criterion met
 Total energy in the final basis set = -1510.29844655
 Final energy is   -1510.29844655403
 **  OPTIMIZATION CONVERGED  **

                    Orbital Energies (a.u.)
 --------------------------------------------------------------

 Alpha MOs
 -- Occupied --
-18.951 -18.930 -18.927 -18.919 -18.891 -18.890 -18.881 -18.876
-18.873 -18.856 -10.113 -10.101 -10.096 -10.088 -10.075 -10.066
-10.060 -10.054 -10.053 -10.052 -10.049 -10.045 -10.039 -10.033
-10.030 -10.028 -10.024 -10.022 -10.016 -10.015  -1.026  -1.011
 -1.005  -0.993  -0.974  -0.964  -0.949  -0.936  -0.932  -0.920
 -0.767  -0.756  -0.728  -0.719  -0.711  -0.700  -0.688  -0.673
 -0.644  -0.613  -0.594  -0.579  -0.549  -0.540  -0.536  -0.531
 -0.516  -0.502  -0.481  -0.470  -0.461  -0.457  -0.448  -0.445
 -0.435  -0.432  -0.423  -0.422  -0.418  -0.407  -0.396  -0.392
 -0.385  -0.381  -0.370  -0.364  -0.359  -0.356  -0.354  -0.351
 -0.342  -0.337  -0.333  -0.330  -0.327  -0.324  -0.315  -0.313
 -0.307  -0.306  -0.299  -0.299  -0.288  -0.284  -0.279  -0.275
 -0.268  -0.262  -0.256  -0.241  -0.238  -0.228  -0.224  -0.190
 -0.184  -0.168  -0.162  -0.158  -0.152  -0.152  -0.148  -0.139
 -0.136

          Ground-State Mulliken Net Atomic Charges

     Atom                 Charge (a.u.)
  ----------------------------------------
      1 O                    -0.224605
      2 C                     0.216849
      3 C                    -0.079717
      4 C                    -0.078694
      5 C                     0.211413
      6 O                    -0.171879
      7 C                    -0.062426
      8 C                    -0.067762
      9 O                    -0.177766
     10 C                     0.221759
     11 C                    -0.079558
     12 C                    -0.078198
     13 C                     0.217739
     14 O                    -0.213101
     15 O                    -0.170217
     16 O                    -0.164816
     17 O                    -0.210640
     18 C                    -0.128701
     19 C                     0.025015
     20 C                    -0.143764
     21 C                    -0.143738
     22 C                     0.025825
     23 O                    -0.187871
     24 H                     0.086698
     25 H                     0.089180
     26 H                     0.091753
     27 H                     0.079157
     28 H                     0.074445
     29 H                     0.078970
     30 H                     0.074492
     31 H                     0.083027
     32 O                    -0.212767
     33 C                    -0.144692
     34 C                     0.025180
     35 C                    -0.143792
     36 C                    -0.144371
     37 C                     0.023699
     38 O                    -0.188087
     39 H                     0.085043
     40 H                     0.084063
     41 H                     0.118734
     42 H                     0.083781
     43 H                     0.077065
     44 H                     0.073028
     45 H                     0.077373
     46 H                     0.072291
     47 H                     0.089409
     48 H                     0.076344
     49 H                     0.082976
     50 H                     0.094116
     51 H                     0.092686
     52 H                     0.091061
     53 H                     0.116381
     54 H                     0.091791
     55 H                     0.105865
     56 H                     0.079953
  ----------------------------------------
  Sum of atomic charges =    -0.000000

                    Cartesian Multipole Moments
 -----------------------------------------------------------------
    Charge (ESU x 10^10)
                -0.0000
    Dipole Moment (Debye)
         X       2.0908      Y       1.7191      Z      -1.7585
       Tot       3.2279
    Quadrupole Moments (Debye-Ang)
        XX    -134.4474     XY      -8.6158     YY    -163.1005
        XZ      -1.4676     YZ      -6.7006     ZZ    -156.5156

 Total job time:  158.46s(wall), 7550.99s(cpu)
        *  Thank you very much for using Q-Chem.  Have a nice day.  *
