 Q-Chem 5.0, Q-Chem, Inc., Pleasanton, CA (2017)
 Q-Chem 5.0.1 for Intel X86 EM64T Linux

User input:
--------------------------------------------------------------
$molecule
0  1
O -3.94934 -3.66094 2.70899
C -3.26408 -4.56952 2.26188
C -3.36658 -6.02376 2.66595
C -2.45444 -6.50176 3.80761
C -1.67028 -5.4333 4.53669
O -1.51762 -4.33981 3.73269
C -0.60155 -3.37535 4.26173
C -0.75342 -3.2818 5.77643
O 0.17012 -2.31558 6.30213
C -0.26086 -1.62806 7.38874
C 0.80973 -0.75058 7.99249
C 2.09294 -0.62786 7.15786
C 1.99072 -1.08737 5.71734
O 1.4526 -0.46678 4.81188
O -2.39463 -4.29768 1.25024
O 2.80284 -2.12876 5.38758
O -1.36017 -1.76949 7.91024
C 3.17256 -2.45469 4.09814
C 0.41538 0.73746 8.10243
C 1.23747 1.39802 9.20849
C 2.61225 1.41609 8.56772
C 2.26751 0.89987 7.16502
O 0.94876 1.34346 6.95007
H 1.00109 -1.14517 9.01612
H 2.9338 -1.17902 7.63567
H -0.67057 0.89519 8.28108
H 0.8722 2.44674 9.29469
H 1.18687 0.91324 10.20715
H 2.96922 2.46918 8.53284
H 3.37272 0.76922 9.0567
H 3.02456 1.237 6.42267
O -0.81865 -5.86962 5.30165
C -2.20667 -3.04628 0.70141
C -4.74687 -6.32637 3.29432
C -5.05323 -7.82167 3.20517
C -4.10351 -8.36456 4.24958
C -3.50602 -7.05951 4.78306
O -4.55645 -6.13314 4.67289
H -3.28583 -6.63287 1.73752
H -1.73486 -7.2826 3.47167
H -1.8519 -2.33551 1.47734
H -5.57527 -5.7471 2.82971
H -6.09633 -7.96998 3.56599
H -4.94962 -8.26368 2.19088
H -4.70213 -8.86461 5.04338
H -3.32271 -9.05827 3.86919
H -3.10016 -7.21541 5.80731
H -3.1565 -2.67562 0.26029
H -1.44199 -3.11154 -0.09943
H 3.80773 -3.36375 4.11993
H 3.75678 -1.62182 3.65237
H 2.28532 -2.64836 3.46503
H -1.80723 -2.94287 5.90967
H -0.6308 -4.12166 6.47394
H -0.76643 -2.39208 3.7731
H 0.42797 -3.71973 4.0447
$end

$opt
CONSTRAINT
tors           1           2           3           4     -92.175
tors           3           4           5           6     -23.647
tors           4           5           6           7    -170.218
tors           5           6           7           8     -37.771
tors           6           7           8           9    +179.851
tors           7           8           9          10    +147.013
tors           8           9          10          11    +173.133
tors           9          10          11          12      +9.064
tors          11          12          13          14     +75.991
ENDCONSTRAINT
$end

$rem
JOBTYPE                   OPT
METHOD                    B3LYP
DFT_D                     d3_op
BASIS                     STO-3G
GEOM_OPT_MAX_CYCLES       100
GEOM_OPT_TOL_GRADIENT     300
GEOM_OPT_TOL_DISPLACEMENT 1200
GEOM_OPT_TOL_ENERGY       100
SYMMETRY                  False
THRESH                    12
SCF_CONVERGENCE           8
MAX_SUB_FILE_NUM          128
MEM_STATIC                400
MEM_TOTAL                 4000
$end
--------------------------------------------------------------

   15   -1510.1146625347      7.73E-09 Convergence criterion met
 Total energy in the final basis set = -1510.11466253
   14   -1510.1893134269      5.36E-09 Convergence criterion met
 Total energy in the final basis set = -1510.18931343
   14   -1510.2302378185      4.62E-09 Convergence criterion met
 Total energy in the final basis set = -1510.23023782
   14   -1510.2532791487      7.68E-09 Convergence criterion met
 Total energy in the final basis set = -1510.25327915
   13   -1510.2634402107      8.30E-09 Convergence criterion met
 Total energy in the final basis set = -1510.26344021
   14   -1510.2682995143      5.06E-09 Convergence criterion met
 Total energy in the final basis set = -1510.26829951
   13   -1510.2713728341      4.15E-09 Convergence criterion met
 Total energy in the final basis set = -1510.27137283
   13   -1510.2721494872      4.44E-09 Convergence criterion met
   11   -1510.2734182646      7.76E-09 Convergence criterion met
 Total energy in the final basis set = -1510.27341826
   12   -1510.2734838364      1.61E-09 Convergence criterion met
 Total energy in the final basis set = -1510.27348384
   11   -1510.2735077481      5.48E-09 Convergence criterion met
 Total energy in the final basis set = -1510.27350775
    9   -1510.2735137776      8.50E-09 Convergence criterion met
 Total energy in the final basis set = -1510.27351378
    9   -1510.2735160810      4.90E-09 Convergence criterion met
 Total energy in the final basis set = -1510.27351608
    9   -1510.2735178604      2.70E-09 Convergence criterion met
 Total energy in the final basis set = -1510.27351786

             Standard Nuclear Orientation (Angstroms)
    I     Atom           X                Y                Z
 ----------------------------------------------------------------
    1      O      -3.2637125662     0.5183033260     2.3375661111
    2      C      -3.6668549730     1.0653390673     1.2893674446
    3      C      -4.6845586084     0.4968918158     0.2358956791
    4      C      -4.0683736984    -0.3029068108    -0.9893419031
    5      C      -2.5133038659    -0.5558514550    -1.0069983909
    6      O      -1.8674375330     0.4292214764    -0.2079191146
    7      C      -0.3848832655     0.4835206200    -0.2880093598
    8      C       0.3902748907    -0.8770193146    -0.4051194296
    9      O       1.8278545459    -0.5103083526    -0.4695011588
   10      C       2.6319906729    -1.5090188693     0.1608764255
   11      C       4.1610572550    -1.2279927147    -0.0475577331
   12      C       4.6170074096     0.1511989336    -0.6862879711
   13      C       3.5078434535     1.2460537792    -0.8906157584
   14      O       2.9778623274     1.9816308447    -0.0315214029
   15      O      -3.3838588290     2.4272255634     0.9290596673
   16      O       3.2609124810     1.3479067112    -2.3026402669
   17      O       2.1641935922    -2.4848117411     0.7887481576
   18      C       2.2807086553     2.4222047929    -2.5716563293
   19      C       4.9387036525    -1.2008480009     1.3416074784
   20      C       6.4494718539    -1.5612010782     1.0634173562
   21      C       6.9461907564    -0.2412488536     0.3646387529
   22      C       5.6418652822     0.6489817457     0.4247045467
   23      O       4.9868452999     0.2364751550     1.6874386027
   24      H       4.5401265804    -2.0613572210    -0.6684701393
   25      H       5.1064773278    -0.0164387412    -1.6616425007
   26      H       4.4468209475    -1.7848953756     2.1438293795
   27      H       6.9812876316    -1.7410259447     2.0114267987
   28      H       6.5556673559    -2.4510532321     0.4227341266
   29      H       7.7643717529     0.2343839707     0.9282240701
   30      H       7.2822125804    -0.4095446869    -0.6710402418
   31      H       5.8165954921     1.7421923409     0.4227018875
   32      O      -1.9555743337    -1.4478287042    -1.6839811526
   33      C      -2.4395248841     3.0173188573     1.9028198226
   34      C      -5.6269623834    -0.6173614021     0.8686596534
   35      C      -6.9173924696    -0.7436449061    -0.0329576957
   36      C      -6.3340716671    -1.4905423362    -1.2900264003
   37      C      -4.8286062389    -1.6900770403    -0.8553163446
   38      O      -4.9037539084    -1.8832615838     0.6101546846
   39      H      -5.2736531809     1.3523682527    -0.1396115245
   40      H      -4.3200507279     0.1983605971    -1.9428072918
   41      H      -1.4551837638     2.5071342543     1.8769263819
   42      H      -5.8106931582    -0.4945047061     1.9536096244
   43      H      -7.6831921904    -1.3496532099     0.4769030867
   44      H      -7.3514733013     0.2377202476    -0.2824129331
   45      H      -6.8236085542    -2.4648050377    -1.4468139643
   46      H      -6.4209848812    -0.8980031253    -2.2148342657
   47      H      -4.2967218171    -2.5337234136    -1.3376397012
   48      H      -2.8323596304     2.9651205036     2.9388516928
   49      H      -2.3124053761     4.0748428050     1.6066934510
   50      H       2.0980538969     2.4064278775    -3.6619379005
   51      H       2.6725659938     3.4175360033    -2.2767804314
   52      H       1.3261385632     2.2523619879    -2.0339803273
   53      H       0.2081897301    -1.5355724676     0.4705985571
   54      H       0.0754998630    -1.4098635485    -1.3259809842
   55      H      -0.0645101702     1.0146595048     0.6316443538
   56      H      -0.1111015798     1.1158193448    -1.1619839052
 ----------------------------------------------------------------

    9   -1510.2735184910      1.90E-09 Convergence criterion met
 Total energy in the final basis set = -1510.27351849
 Final energy is   -1510.27351849101
 **  OPTIMIZATION CONVERGED  **

                    Orbital Energies (a.u.)
 --------------------------------------------------------------

 Alpha MOs
 -- Occupied --
-18.951 -18.941 -18.928 -18.923 -18.888 -18.886 -18.885 -18.877
-18.865 -18.862 -10.113 -10.104 -10.096 -10.093 -10.083 -10.068
-10.063 -10.059 -10.059 -10.058 -10.057 -10.057 -10.041 -10.040
-10.036 -10.034 -10.020 -10.020 -10.019 -10.019  -1.023  -1.016
 -1.003  -1.000  -0.970  -0.969  -0.950  -0.940  -0.929  -0.926
 -0.764  -0.762  -0.730  -0.722  -0.711  -0.705  -0.700  -0.663
 -0.657  -0.619  -0.597  -0.590  -0.545  -0.544  -0.538  -0.537
 -0.514  -0.511  -0.489  -0.473  -0.460  -0.457  -0.455  -0.444
 -0.440  -0.430  -0.429  -0.413  -0.410  -0.409  -0.406  -0.403
 -0.392  -0.386  -0.378  -0.368  -0.367  -0.356  -0.351  -0.347
 -0.345  -0.335  -0.334  -0.331  -0.329  -0.328  -0.327  -0.314
 -0.313  -0.307  -0.305  -0.300  -0.297  -0.293  -0.290  -0.273
 -0.273  -0.251  -0.247  -0.245  -0.241  -0.234  -0.233  -0.191
 -0.183  -0.171  -0.167  -0.159  -0.157  -0.147  -0.144  -0.143
 -0.143

          Ground-State Mulliken Net Atomic Charges

     Atom                 Charge (a.u.)
  ----------------------------------------
      1 O                    -0.218164
      2 C                     0.217434
      3 C                    -0.081226
      4 C                    -0.076913
      5 C                     0.217422
      6 O                    -0.165980
      7 C                    -0.044426
      8 C                    -0.059681
      9 O                    -0.171723
     10 C                     0.212353
     11 C                    -0.078569
     12 C                    -0.080355
     13 C                     0.217323
     14 O                    -0.217915
     15 O                    -0.173370
     16 O                    -0.172056
     17 O                    -0.212851
     18 C                    -0.127605
     19 C                     0.025418
     20 C                    -0.143149
     21 C                    -0.144848
     22 C                     0.026038
     23 O                    -0.186858
     24 H                     0.086395
     25 H                     0.085338
     26 H                     0.088719
     27 H                     0.078750
     28 H                     0.073910
     29 H                     0.078182
     30 H                     0.073382
     31 H                     0.083923
     32 O                    -0.213015
     33 C                    -0.128045
     34 C                     0.025323
     35 C                    -0.143864
     36 C                    -0.144307
     37 C                     0.024143
     38 O                    -0.188660
     39 H                     0.084314
     40 H                     0.085537
     41 H                     0.085092
     42 H                     0.086950
     43 H                     0.078130
     44 H                     0.073044
     45 H                     0.078444
     46 H                     0.072680
     47 H                     0.088816
     48 H                     0.088205
     49 H                     0.087607
     50 H                     0.088708
     51 H                     0.086361
     52 H                     0.082943
     53 H                     0.102466
     54 H                     0.107433
     55 H                     0.098715
     56 H                     0.084082
  ----------------------------------------
  Sum of atomic charges =     0.000000

                    Cartesian Multipole Moments
 -----------------------------------------------------------------
    Charge (ESU x 10^10)
                 0.0000
    Dipole Moment (Debye)
         X       0.1718      Y       1.7770      Z      -3.0805
       Tot       3.5605
    Quadrupole Moments (Debye-Ang)
        XX    -134.7400     XY      -7.6536     YY    -162.0519
        XZ       0.6468     YZ       0.1912     ZZ    -163.0966

 Total job time:  52.69s(wall), 2503.79s(cpu)
        *  Thank you very much for using Q-Chem.  Have a nice day.  *
