 Q-Chem 5.0, Q-Chem, Inc., Pleasanton, CA (2017)
 Q-Chem 5.0.1 for Intel X86 EM64T Linux

User input:
--------------------------------------------------------------
$molecule
0  1
O -3.94934 -3.66094 2.70899
C -3.26408 -4.56952 2.26188
C -3.36658 -6.02376 2.66595
C -2.44047 -6.50644 3.79431
C -1.64206 -5.44176 4.5134
O -0.92416 -4.71084 3.61017
C -0.07227 -3.73748 4.22343
C -0.72135 -3.19626 5.49304
O 0.14135 -2.22702 6.10884
C -0.48732 -1.21317 6.75383
C 0.47231 -0.23103 7.38246
C 1.92962 -0.361 6.91594
C 2.15115 -1.18209 5.66157
O 2.26035 -0.73227 4.53007
O -2.29503 -4.27168 1.35619
O 2.70474 -2.40615 5.89573
O -1.69629 -1.16034 6.94445
C 3.44716 -3.11777 4.97335
C 0.18401 1.23522 6.99608
C 0.74791 2.16248 8.07101
C 2.23515 1.99106 7.83741
C 2.21358 1.11702 6.57675
O 1.03561 1.49971 5.9104
H 0.35626 -0.33449 8.48495
H 2.60556 -0.74434 7.71278
H -0.89526 1.44744 6.83342
H 0.45939 3.1989 7.78224
H 0.40589 1.96638 9.10996
H 2.67418 2.99135 7.62661
H 2.79165 1.49337 8.66098
H 3.15982 1.24114 6.00462
O -1.12291 -5.83537 5.5539
C -2.03662 -3.00156 0.88463
C -4.74173 -6.32497 3.30832
C -5.06211 -7.81432 3.19306
C -4.09109 -8.3866 4.20023
C -3.48799 -7.09595 4.76449
O -4.53523 -6.16384 4.68823
H -3.30468 -6.62755 1.73272
H -1.71642 -7.27441 3.44016
H -1.7514 -2.33206 1.72416
H -5.57265 -5.73111 2.86717
H -6.09706 -7.95729 3.57915
H -4.99222 -8.2396 2.16883
H -4.67299 -8.92149 4.98367
H -3.31053 -9.05796 3.78123
H -3.08608 -7.28939 5.78277
H -2.93264 -2.59544 0.36846
H -1.19636 -3.04591 0.1619
H 3.73696 -4.09399 5.41297
H 4.36948 -2.55387 4.718
H 2.8675 -3.29228 4.04436
H -1.66792 -2.72342 5.13935
H -0.9991 -3.84394 6.33877
H 0.14179 -2.92082 3.50191
H 0.87607 -4.23565 4.50539
$end

$opt
CONSTRAINT
tors           1           2           3           4     -93.007
tors           3           4           5           6     -54.557
tors           4           5           6           7    -176.112
tors           5           6           7           8     -33.479
tors           6           7           8           9    +179.614
tors           7           8           9          10    +147.013
tors           8           9          10          11    +179.837
tors           9          10          11          12     +13.558
tors          11          12          13          14     +96.421
ENDCONSTRAINT
$end

$rem
JOBTYPE                   OPT
METHOD                    B3LYP
DFT_D                     d3_op
BASIS                     STO-3G
GEOM_OPT_MAX_CYCLES       100
GEOM_OPT_TOL_GRADIENT     300
GEOM_OPT_TOL_DISPLACEMENT 1200
GEOM_OPT_TOL_ENERGY       100
SYMMETRY                  False
THRESH                    12
SCF_CONVERGENCE           8
MAX_SUB_FILE_NUM          128
MEM_STATIC                400
MEM_TOTAL                 4000
$end
--------------------------------------------------------------

   15   -1510.1070193686      9.21E-09 Convergence criterion met
 Total energy in the final basis set = -1510.10701937
   15   -1510.1817047975      1.69E-09 Convergence criterion met
 Total energy in the final basis set = -1510.18170480
   15   -1510.2224407070      1.75E-09 Convergence criterion met
 Total energy in the final basis set = -1510.22244071
   15   -1510.2453799190      1.60E-09 Convergence criterion met
 Total energy in the final basis set = -1510.24537992
   14   -1510.2581512656      6.28E-09 Convergence criterion met
 Total energy in the final basis set = -1510.25815127
   14   -1510.2654901339      4.52E-09 Convergence criterion met
 Total energy in the final basis set = -1510.26549013
   12   -1510.2698184289      9.00E-09 Convergence criterion met
 Total energy in the final basis set = -1510.26981843
   13   -1510.2723581671      3.85E-09 Convergence criterion met
   11   -1510.2755224979      2.45E-09 Convergence criterion met
 Total energy in the final basis set = -1510.27552250
   10   -1510.2755310880      4.85E-09 Convergence criterion met
 Total energy in the final basis set = -1510.27553109
    9   -1510.2755395826      9.19E-09 Convergence criterion met
 Total energy in the final basis set = -1510.27553958
   10   -1510.2755525077      9.81E-09 Convergence criterion met
 Total energy in the final basis set = -1510.27555251
   11   -1510.2755650557      2.91E-09 Convergence criterion met
 Total energy in the final basis set = -1510.27556506
    9   -1510.2755733602      8.34E-09 Convergence criterion met
 Total energy in the final basis set = -1510.27557336

             Standard Nuclear Orientation (Angstroms)
    I     Atom           X                Y                Z
 ----------------------------------------------------------------
    1      O       2.8656770391    -1.3638709595    -1.8799189844
    2      C       3.3791356974    -0.2376991382    -1.7064819709
    3      C       4.5470583476     0.1441915382    -0.7321171187
    4      C       4.0827417936     0.6553067268     0.6993108936
    5      C       2.5600610988     0.4056297796     1.0192641334
    6      O       1.8015742136     0.9906955976    -0.0379159840
    7      C       0.3212798105     0.9517333055     0.1028031617
    8      C      -0.3065536455    -0.2921602875     0.8266509855
    9      O      -1.7740661245    -0.0627688530     0.8320906810
   10      C      -2.4740662257    -1.3029781833     0.7311185207
   11      C      -4.0316749132    -1.0912887493     0.7386227696
   12      C      -4.6030654693     0.3734039571     0.5224646350
   13      C      -3.5662587888     1.5534954451     0.4889539066
   14      O      -3.0483357382     2.0972797749    -0.5094179094
   15      O       3.0646525468     0.9174026897    -2.4962182627
   16      O      -3.4174202254     2.0255535407     1.8376236982
   17      O      -1.9083060454    -2.4140905059     0.6305056136
   18      C      -2.4932720061     3.1785749713     1.8760231843
   19      C      -4.6438423842    -1.8354885547    -0.5267385343
   20      C      -6.2006136792    -2.0075329259    -0.3284626817
   21      C      -6.7095630684    -0.5464649646    -0.6164088892
   22      C      -5.3434956834     0.2009171043    -0.8752516694
   23      O      -4.5300870006    -0.8103134584    -1.5885404868
   24      H      -4.4162018103    -1.5241239514     1.6810275809
   25      H      -5.3247395790     0.6046045721     1.3259122339
   26      H      -4.0935408840    -2.7556210257    -0.8046876354
   27      H      -6.6035193173    -2.7280409142    -1.0578856330
   28      H      -6.4518529205    -2.3551411079     0.6864487728
   29      H      -7.3427930934    -0.5108189739    -1.5171236994
   30      H      -7.2694028095    -0.1130328867     0.2274386684
   31      H      -5.4084031910     1.1317357429    -1.4712568512
   32      O       2.1134345621    -0.1320717996     2.0556153581
   33      C       1.9719200395     0.5974518400    -3.4422257462
   34      C       5.4557840344    -1.0948647168    -0.3273038927
   35      C       6.8555896302    -0.5316711462     0.1352889701
   36      C       6.4723669302     0.1174083355     1.5176121134
   37      C       4.9484449702    -0.2818502510     1.6359531568
   38      O       4.8593312760    -1.5857282764     0.9353919292
   39      H       5.1436041522     0.9290484955    -1.2299450214
   40      H       4.3011247502     1.7308307605     0.8326745906
   41      H       1.0599471138     0.2531208156    -2.9139944527
   42      H       5.4866916425    -1.9055795931    -1.0808681703
   43      H       7.5739148342    -1.3567709322     0.2661009362
   44      H       7.2753190214     0.1943663483    -0.5790666253
   45      H       7.0531489401    -0.3185318544     2.3457467949
   46      H       6.6116551401     1.2103611179     1.5260772083
   47      H       4.5474970716    -0.3710573020     2.6642692707
   48      H       2.2737391665    -0.1879138101    -4.1656108911
   49      H       1.7525936315     1.5351176775    -3.9852411389
   50      H      -2.5508704354     3.5876306767     2.9015981803
   51      H      -2.7807723042     3.9599573401     1.1433336540
   52      H      -1.4492307717     2.8687766863     1.6649255472
   53      H      -0.0766555298    -1.2406835818     0.2963141374
   54      H       0.0878693690    -0.3627647744     1.8611681908
   55      H      -0.0721166404     1.0195981441    -0.9323826730
   56      H       0.0010850166     1.8689246325     0.6456942663
 ----------------------------------------------------------------

    9   -1510.2755731087      9.52E-09 Convergence criterion met
 Total energy in the final basis set = -1510.27557311
 Final energy is   -1510.27557310866
 **  OPTIMIZATION CONVERGED  **

                    Orbital Energies (a.u.)
 --------------------------------------------------------------

 Alpha MOs
 -- Occupied --
-18.945 -18.941 -18.928 -18.927 -18.886 -18.886 -18.885 -18.876
-18.868 -18.865 -10.110 -10.103 -10.097 -10.095 -10.080 -10.067
-10.062 -10.059 -10.058 -10.057 -10.057 -10.057 -10.040 -10.040
-10.035 -10.035 -10.020 -10.020 -10.019 -10.018  -1.020  -1.016
 -1.004  -1.003  -0.970  -0.968  -0.948  -0.940  -0.930  -0.930
 -0.764  -0.761  -0.730  -0.722  -0.709  -0.704  -0.699  -0.662
 -0.659  -0.619  -0.597  -0.589  -0.545  -0.543  -0.537  -0.536
 -0.512  -0.509  -0.488  -0.472  -0.459  -0.457  -0.456  -0.443
 -0.440  -0.429  -0.429  -0.412  -0.410  -0.408  -0.406  -0.401
 -0.393  -0.383  -0.378  -0.368  -0.367  -0.356  -0.351  -0.347
 -0.345  -0.338  -0.334  -0.331  -0.330  -0.328  -0.326  -0.312
 -0.310  -0.306  -0.305  -0.299  -0.295  -0.292  -0.285  -0.275
 -0.271  -0.252  -0.249  -0.248  -0.242  -0.234  -0.232  -0.189
 -0.181  -0.171  -0.169  -0.158  -0.157  -0.146  -0.146  -0.144
 -0.143

          Ground-State Mulliken Net Atomic Charges

     Atom                 Charge (a.u.)
  ----------------------------------------
      1 O                    -0.216400
      2 C                     0.210611
      3 C                    -0.080499
      4 C                    -0.076213
      5 C                     0.216091
      6 O                    -0.168803
      7 C                    -0.047030
      8 C                    -0.060549
      9 O                    -0.171353
     10 C                     0.213037
     11 C                    -0.077259
     12 C                    -0.081594
     13 C                     0.218765
     14 O                    -0.221026
     15 O                    -0.168711
     16 O                    -0.172346
     17 O                    -0.212209
     18 C                    -0.127267
     19 C                     0.024617
     20 C                    -0.144386
     21 C                    -0.143782
     22 C                     0.024804
     23 O                    -0.190269
     24 H                     0.086835
     25 H                     0.084615
     26 H                     0.089108
     27 H                     0.078698
     28 H                     0.073822
     29 H                     0.077903
     30 H                     0.073208
     31 H                     0.086528
     32 O                    -0.208532
     33 C                    -0.127579
     34 C                     0.024703
     35 C                    -0.143000
     36 C                    -0.145063
     37 C                     0.023560
     38 O                    -0.188218
     39 H                     0.085113
     40 H                     0.085981
     41 H                     0.087227
     42 H                     0.087182
     43 H                     0.078246
     44 H                     0.073169
     45 H                     0.078341
     46 H                     0.072636
     47 H                     0.089934
     48 H                     0.087478
     49 H                     0.089572
     50 H                     0.088825
     51 H                     0.089034
     52 H                     0.080168
     53 H                     0.102621
     54 H                     0.108577
     55 H                     0.097206
     56 H                     0.083870
  ----------------------------------------
  Sum of atomic charges =     0.000000

                    Cartesian Multipole Moments
 -----------------------------------------------------------------
    Charge (ESU x 10^10)
                 0.0000
    Dipole Moment (Debye)
         X      -0.2583      Y       2.8652      Z       0.7103
       Tot       2.9632
    Quadrupole Moments (Debye-Ang)
        XX    -133.5553     XY       8.2366     YY    -164.0070
        XZ      -5.6643     YZ       4.0496     ZZ    -159.8797

 Total job time:  68.91s(wall), 3279.93s(cpu)
        *  Thank you very much for using Q-Chem.  Have a nice day.  *
