 Q-Chem 5.0, Q-Chem, Inc., Pleasanton, CA (2017)
 Q-Chem 5.0.1 for Intel X86 EM64T Linux

User input:
--------------------------------------------------------------
$molecule
0  1
O 2.8656770391 -1.3638709595 -1.8799189844
C 3.3791356974 -0.2376991382 -1.7064819709
C 4.5470583476 0.1441915382 -0.7321171187
C 4.0827417936 0.6553067268 0.6993108936
C 2.5600610988 0.4056297796 1.0192641334
O 1.8015742136 0.9906955976 -0.037915984
C 0.3212798105 0.9517333055 0.1028031617
C -0.3065536455 -0.2921602875 0.8266509855
O -1.7740661245 -0.062768853 0.832090681
C -2.4740662257 -1.3029781833 0.7311185207
C -4.0316749132 -1.0912887493 0.7386227696
C -4.6030654693 0.3734039571 0.522464635
C -3.5662587888 1.5534954451 0.4889539066
O -3.0483357382 2.0972797749 -0.5094179094
O 3.0646525468 0.9174026897 -2.4962182627
O -3.4174202254 2.0255535407 1.8376236982
O -1.9083060454 -2.4140905059 0.6305056136
C -2.4932720061 3.1785749713 1.8760231843
C -4.6438423842 -1.8354885547 -0.5267385343
C -6.2006136792 -2.0075329259 -0.3284626817
C -6.7095630684 -0.5464649646 -0.6164088892
C -5.3434956834 0.2009171043 -0.8752516694
O -4.5300870006 -0.8103134584 -1.5885404868
H -4.4162018103 -1.5241239514 1.6810275809
H -5.324739579 0.6046045721 1.3259122339
H -4.093540884 -2.7556210257 -0.8046876354
H -6.6035193173 -2.7280409142 -1.057885633
H -6.4518529205 -2.3551411079 0.6864487728
H -7.3427930934 -0.5108189739 -1.5171236994
H -7.2694028095 -0.1130328867 0.2274386684
H -5.408403191 1.1317357429 -1.4712568512
O 2.1134345621 -0.1320717996 2.0556153581
C 1.9719200395 0.59745184 -3.4422257462
C 5.4557840344 -1.0948647168 -0.3273038927
C 6.8555896302 -0.5316711462 0.1352889701
C 6.4723669302 0.1174083355 1.5176121134
C 4.9484449702 -0.281850251 1.6359531568
O 4.859331276 -1.5857282764 0.9353919292
H 5.1436041522 0.9290484955 -1.2299450214
H 4.3011247502 1.7308307605 0.8326745906
H 1.0599471138 0.2531208156 -2.9139944527
H 5.4866916425 -1.9055795931 -1.0808681703
H 7.5739148342 -1.3567709322 0.2661009362
H 7.2753190214 0.1943663483 -0.5790666253
H 7.0531489401 -0.3185318544 2.3457467949
H 6.6116551401 1.2103611179 1.5260772083
H 4.5474970716 -0.371057302 2.6642692707
H 2.2737391665 -0.1879138101 -4.1656108911
H 1.7525936315 1.5351176775 -3.9852411389
H -2.5508704354 3.5876306767 2.9015981803
H -2.7807723042 3.9599573401 1.143333654
H -1.4492307717 2.8687766863 1.6649255472
H -0.0766555298 -1.2406835818 0.2963141374
H 0.087869369 -0.3627647744 1.8611681908
H -0.0721166404 1.0195981441 -0.932382673
H 0.0010850166 1.8689246325 0.6456942663
$end

$rem
JOBTYPE                   OPT
METHOD                    B3LYP
DFT_D                     d3_op
BASIS                     STO-3G
GEOM_OPT_MAX_CYCLES       100
GEOM_OPT_TOL_GRADIENT     300
GEOM_OPT_TOL_DISPLACEMENT 1200
GEOM_OPT_TOL_ENERGY       100
SYMMETRY                  False
THRESH                    12
SCF_CONVERGENCE           8
MAX_SUB_FILE_NUM          128
MEM_STATIC                400
MEM_TOTAL                 4000
$end
--------------------------------------------------------------

   16   -1510.2753145263      5.31E-09 Convergence criterion met
 Total energy in the final basis set = -1510.27531453
   14   -1510.2778739475      2.95E-09 Convergence criterion met
 Total energy in the final basis set = -1510.27787395
   14   -1510.2803377372      7.77E-09 Convergence criterion met
 Total energy in the final basis set = -1510.28033774
   14   -1510.2828828980      6.84E-09 Convergence criterion met
 Total energy in the final basis set = -1510.28288290
   14   -1510.2837589682      3.12E-09 Convergence criterion met
 Total energy in the final basis set = -1510.28375897
   14   -1510.2857346758      3.16E-09 Convergence criterion met
 Total energy in the final basis set = -1510.28573468
   13   -1510.2864168861      5.44E-09 Convergence criterion met
 Total energy in the final basis set = -1510.28641689
   13   -1510.2875698552      9.81E-09 Convergence criterion met
   14   -1510.2984176499      3.54E-09 Convergence criterion met
 Total energy in the final basis set = -1510.29841765
   13   -1510.2983651703      2.03E-09 Convergence criterion met
 Total energy in the final basis set = -1510.29836517
   12   -1510.2984350174      7.30E-09 Convergence criterion met
 Total energy in the final basis set = -1510.29843502
   12   -1510.2984385454      3.13E-09 Convergence criterion met
 Total energy in the final basis set = -1510.29843855
   14   -1510.2983694746      1.77E-09 Convergence criterion met
 Total energy in the final basis set = -1510.29836947
   12   -1510.2984352751      7.15E-09 Convergence criterion met
 Total energy in the final basis set = -1510.29843528

             Standard Nuclear Orientation (Angstroms)
    I     Atom           X                Y                Z
 ----------------------------------------------------------------
    1      O      -1.8655650897    -1.2845633039    -0.5830954211
    2      C      -2.4591786270    -0.9349890018     0.4637972660
    3      C      -3.9183902632    -0.3629595792     0.5764518259
    4      C      -4.0775763876     1.1147678895     0.0122615268
    5      C      -2.7626781796     1.6996365244    -0.6179883757
    6      O      -1.6912580508     1.4674881558     0.3016462802
    7      C      -0.3796193885     1.8089137799    -0.3017882668
    8      C      -0.0211568381     0.8559629753    -1.5087284809
    9      O       1.4538859866     0.7123905737    -1.5929007861
   10      C       1.8835537953    -0.5211971204    -1.0126980364
   11      C       3.4551021979    -0.5600699965    -1.0391182915
   12      C       4.1497967919     0.3876696942     0.0237237238
   13      C       3.1305151112     1.1279494051     0.9486190981
   14      O       1.9563297496     0.7757553138     1.2128810207
   15      O      -1.9339879197    -1.0358268182     1.7848969042
   16      O       3.7601098336     2.2809536172     1.5033702392
   17      O       1.1282831508    -1.4515559080    -0.6508205572
   18      C       2.8237298175     2.9843403403     2.4135810531
   19      C       3.9874535759    -1.9803404185    -0.5784174207
   20      C       5.4912286823    -2.1229881415    -1.0342311648
   21      C       6.2073461235    -1.1614904070    -0.0140155211
   22      C       4.9847643944    -0.6789094246     0.8633171425
   23      O       4.0854838684    -1.8518072201     0.8955459572
   24      H       3.7911932730    -0.3052605799    -2.0603898346
   25      H       4.8081124116     1.1370184167    -0.4495875561
   26      H       3.3151312631    -2.8183959680    -0.8459291266
   27      H       5.8323298805    -3.1635709721    -0.9146678729
   28      H       5.6393651276    -1.8199229381    -2.0830261042
   29      H       6.9359991626    -1.7024669836     0.6105347833
   30      H       6.7210574947    -0.3206240797    -0.5070542419
   31      H       5.2417237556    -0.3526499053     1.8900217709
   32      O      -2.6381059449     2.2714857588    -1.7216273803
   33      C      -0.5358992935    -1.5331697861     1.7840531818
   34      C      -4.9370683515    -1.1423499038    -0.3631366976
   35      C      -6.4045332594    -0.8143453195     0.1207991171
   36      C      -6.5740817348     0.6599826835    -0.4052830381
   37      C      -5.1782964941     0.8973529976    -1.1045141607
   38      O      -4.8330396851    -0.4329018616    -1.6580350540
   39      H      -4.2202647690    -0.4129217069     1.6370178703
   40      H      -4.4222835532     1.8015930899     0.8074752849
   41      H      -0.0804412962    -1.5039736842     0.7671304782
   42      H      -4.7102636991    -2.2181815911    -0.4937896394
   43      H      -7.1275514327    -1.4975889133    -0.3524748047
   44      H      -6.5086050136    -0.8917111834     1.2148521968
   45      H      -7.3910385488     0.7352913545    -1.1405160653
   46      H      -6.7611784773     1.3831111381     0.4047082004
   47      H      -5.1608151235     1.6640138780    -1.9038889043
   48      H      -0.5208852562    -2.5739178560     2.1652877963
   49      H       0.0449115960    -0.8884729009     2.4709446878
   50      H       3.4032931718     3.8070138571     2.8707606857
   51      H       2.4410673527     2.3092236146     3.2056115355
   52      H       1.9598580982     3.4038574643     1.8585880210
   53      H      -0.5108463108    -0.1336910923    -1.3333198602
   54      H      -0.3642077687     1.2875906709    -2.4691049843
   55      H       0.3674685629     1.6313727875     0.5049161438
   56      H      -0.3552114489     2.8738830640    -0.6160179729
 ----------------------------------------------------------------

    9   -1510.2984350254      6.12E-09 Convergence criterion met
 Total energy in the final basis set = -1510.29843503
 Final energy is   -1510.29843502541
 **  OPTIMIZATION CONVERGED  **

                    Orbital Energies (a.u.)
 --------------------------------------------------------------

 Alpha MOs
 -- Occupied --
-18.952 -18.929 -18.926 -18.917 -18.892 -18.891 -18.880 -18.874
-18.874 -18.856 -10.114 -10.100 -10.096 -10.088 -10.075 -10.066
-10.060 -10.055 -10.053 -10.052 -10.047 -10.046 -10.039 -10.032
-10.027 -10.027 -10.024 -10.022 -10.015 -10.014  -1.027  -1.010
 -1.004  -0.992  -0.974  -0.963  -0.950  -0.935  -0.931  -0.919
 -0.767  -0.756  -0.728  -0.719  -0.711  -0.699  -0.688  -0.673
 -0.642  -0.613  -0.594  -0.578  -0.549  -0.540  -0.536  -0.531
 -0.517  -0.502  -0.481  -0.469  -0.461  -0.458  -0.447  -0.445
 -0.435  -0.432  -0.423  -0.423  -0.419  -0.406  -0.396  -0.390
 -0.386  -0.380  -0.370  -0.364  -0.359  -0.356  -0.353  -0.351
 -0.342  -0.337  -0.333  -0.329  -0.328  -0.323  -0.315  -0.312
 -0.307  -0.306  -0.299  -0.298  -0.288  -0.282  -0.279  -0.276
 -0.267  -0.263  -0.254  -0.239  -0.238  -0.228  -0.223  -0.192
 -0.183  -0.168  -0.161  -0.156  -0.152  -0.151  -0.148  -0.139
 -0.136

          Ground-State Mulliken Net Atomic Charges

     Atom                 Charge (a.u.)
  ----------------------------------------
      1 O                    -0.224195
      2 C                     0.218110
      3 C                    -0.079581
      4 C                    -0.078511
      5 C                     0.211640
      6 O                    -0.172368
      7 C                    -0.060965
      8 C                    -0.068859
      9 O                    -0.178102
     10 C                     0.221454
     11 C                    -0.079894
     12 C                    -0.078290
     13 C                     0.217889
     14 O                    -0.213056
     15 O                    -0.171092
     16 O                    -0.164942
     17 O                    -0.210452
     18 C                    -0.128791
     19 C                     0.025084
     20 C                    -0.143894
     21 C                    -0.143599
     22 C                     0.025741
     23 O                    -0.188207
     24 H                     0.086443
     25 H                     0.089122
     26 H                     0.092212
     27 H                     0.079187
     28 H                     0.074415
     29 H                     0.078964
     30 H                     0.074384
     31 H                     0.083170
     32 O                    -0.211824
     33 C                    -0.146664
     34 C                     0.025193
     35 C                    -0.143867
     36 C                    -0.144284
     37 C                     0.023771
     38 O                    -0.187976
     39 H                     0.084879
     40 H                     0.083977
     41 H                     0.120101
     42 H                     0.084145
     43 H                     0.077077
     44 H                     0.072987
     45 H                     0.077261
     46 H                     0.072131
     47 H                     0.088984
     48 H                     0.076291
     49 H                     0.083002
     50 H                     0.094317
     51 H                     0.093529
     52 H                     0.090557
     53 H                     0.118564
     54 H                     0.090518
     55 H                     0.104049
     56 H                     0.080265
  ----------------------------------------
  Sum of atomic charges =     0.000000

                    Cartesian Multipole Moments
 -----------------------------------------------------------------
    Charge (ESU x 10^10)
                -0.0000
    Dipole Moment (Debye)
         X       2.2955      Y       1.9756      Z       1.9048
       Tot       3.5778
    Quadrupole Moments (Debye-Ang)
        XX    -135.0579     XY       0.7251     YY    -157.4396
        XZ      -8.6568     YZ       5.8443     ZZ    -162.1041

 Total job time:  175.09s(wall), 8353.00s(cpu)
        *  Thank you very much for using Q-Chem.  Have a nice day.  *
