 Q-Chem 5.0, Q-Chem, Inc., Pleasanton, CA (2017)
 Q-Chem 5.0.1 for Intel X86 EM64T Linux

User input:
--------------------------------------------------------------
$molecule
0  1
O -3.94934 -3.66094 2.70899
C -3.26408 -4.56952 2.26188
C -3.36658 -6.02376 2.66595
C -2.27588 -6.57182 3.60075
C -1.30475 -5.56109 4.16946
O -0.54154 -5.03544 3.16616
C 0.55523 -4.25011 3.64533
C 0.19941 -3.6119 4.98407
O 1.30422 -2.82823 5.46168
C 0.97202 -1.74839 6.21183
C 2.17638 -0.99995 6.73147
C 3.5313 -1.63715 6.39023
C 3.50923 -2.69607 5.30629
O 3.87657 -2.53588 4.15132
O -2.31498 -4.27469 1.3352
O 3.51898 -3.96835 5.80675
O -0.17362 -1.37493 6.43097
C 3.78126 -5.13226 5.1089
C 2.34199 0.40771 6.13623
C 3.15987 1.27046 7.09552
C 4.52861 0.63741 6.94635
C 4.24134 -0.38107 5.83561
O 3.23355 0.2292 5.0648
H 2.03813 -0.92908 7.83415
H 4.06727 -2.04787 7.27522
H 1.37556 0.9018 5.89529
H 3.1929 2.29613 6.66289
H 2.77469 1.32514 8.13656
H 5.2382 1.41801 6.59259
H 4.92743 0.14398 7.8591
H 5.18205 -0.63233 5.29737
O -1.28303 -5.50118 5.38631
C -2.0754 -3.00914 0.84252
C -4.6223 -6.30785 3.52591
C -5.02367 -7.77499 3.38878
C -3.90963 -8.44193 4.1628
C -3.16804 -7.21003 4.69459
O -4.17428 -6.24381 4.85671
H -3.47282 -6.60206 1.72048
H -1.65502 -7.34363 3.09322
H -1.77715 -2.32736 1.66746
H -5.49059 -5.66132 3.27102
H -5.97485 -7.90467 3.95379
H -5.16511 -8.14092 2.34912
H -4.36212 -9.02229 4.99764
H -3.23822 -9.09505 3.56454
H -2.60392 -7.49205 5.61032
H -2.9849 -2.6167 0.33909
H -1.25051 -3.05746 0.10253
H 2.92544 -5.82793 5.22587
H 4.68148 -5.61657 5.53946
H 3.95836 -4.95299 4.02724
H -0.76229 -3.04982 4.92252
H 0.30315 -4.31855 5.82159
H 0.72623 -3.43279 2.91333
H 1.47193 -4.86488 3.69394
$end

$opt
CONSTRAINT
tors           1           2           3           4    -104.016
tors           3           4           5           6     -66.263
tors           4           5           6           7    -169.659
tors           5           6           7           8     -29.699
tors           6           7           8           9    +179.851
tors           7           8           9          10    +149.236
tors           8           9          10          11    +177.585
tors           9          10          11          12      -3.437
tors          11          12          13          14    +103.235
ENDCONSTRAINT
$end

$rem
JOBTYPE                   OPT
METHOD                    B3LYP
DFT_D                     d3_op
BASIS                     STO-3G
GEOM_OPT_MAX_CYCLES       100
GEOM_OPT_TOL_GRADIENT     300
GEOM_OPT_TOL_DISPLACEMENT 1200
GEOM_OPT_TOL_ENERGY       100
SYMMETRY                  False
THRESH                    12
SCF_CONVERGENCE           8
MAX_SUB_FILE_NUM          128
MEM_STATIC                400
MEM_TOTAL                 4000
$end
--------------------------------------------------------------

   15   -1510.1108833379      9.02E-09 Convergence criterion met
 Total energy in the final basis set = -1510.11088334
   14   -1510.1859460523      7.83E-09 Convergence criterion met
 Total energy in the final basis set = -1510.18594605
   14   -1510.2312550816      2.91E-09 Convergence criterion met
 Total energy in the final basis set = -1510.23125508
   14   -1510.2550870661      3.58E-09 Convergence criterion met
 Total energy in the final basis set = -1510.25508707
   14   -1510.2651989553      5.81E-09 Convergence criterion met
 Total energy in the final basis set = -1510.26519896
   13   -1510.2681980083      7.98E-09 Convergence criterion met
 Total energy in the final basis set = -1510.26819801
   13   -1510.2706763600      7.56E-09 Convergence criterion met
 Total energy in the final basis set = -1510.27067636
   12   -1510.2715391321      8.15E-09 Convergence criterion met
   10   -1510.2732219571      5.85E-09 Convergence criterion met
 Total energy in the final basis set = -1510.27322196
   10   -1510.2732265055      5.93E-09 Convergence criterion met
 Total energy in the final basis set = -1510.27322651
   10   -1510.2732318008      7.94E-09 Convergence criterion met
 Total energy in the final basis set = -1510.27323180
   11   -1510.2732412393      2.92E-09 Convergence criterion met
 Total energy in the final basis set = -1510.27324124
   11   -1510.2732492073      3.37E-09 Convergence criterion met
 Total energy in the final basis set = -1510.27324921
   10   -1510.2732527515      4.88E-09 Convergence criterion met
 Total energy in the final basis set = -1510.27325275

             Standard Nuclear Orientation (Angstroms)
    I     Atom           X                Y                Z
 ----------------------------------------------------------------
    1      O      -3.6045944006    -2.5652065208    -0.4022136737
    2      C      -3.6940793000    -1.7290755163     0.5230015694
    3      C      -4.6476606167    -0.4852446495     0.5910614049
    4      C      -3.9529538662     0.9219743179     0.3194096190
    5      C      -2.4577655657     0.8428855861    -0.1752107644
    6      O      -1.6854867248     0.3087689775     0.8974907465
    7      C      -0.2066052830     0.3586888227     0.7552112490
    8      C       0.4149410021     0.2944284534    -0.6872268387
    9      O       1.8800596944     0.3698194944    -0.4681766099
   10      C       2.6046894339    -0.3404439658    -1.4685048031
   11      C       4.1514350467    -0.1890722361    -1.2417143998
   12      C       4.6561799673     0.7451066067    -0.0595572424
   13      C       3.5637820919     1.5478246371     0.7354882442
   14      O       3.1068470708     1.2921578496     1.8707405531
   15      O      -2.9975381804    -1.8370745047     1.7689128115
   16      O       3.2537390922     2.7303010109    -0.0214240336
   17      O       2.0668615991    -1.0070186553    -2.3797835928
   18      C       2.1936587100     3.5066311302     0.6586455687
   19      C       4.7516315001    -1.5913710464    -0.7795252399
   20      C       6.3178157718    -1.5686934450    -0.9828435534
   21      C       6.7713837104    -0.6790623058     0.2333811436
   22      C       5.3771957078    -0.3167237250     0.8762222583
   23      O       4.5805228644    -1.5519390227     0.6894426767
   24      H       4.5900435077     0.1260697661    -2.2060032934
   25      H       5.3764065956     1.4819021777    -0.4589992864
   26      H       4.2311590276    -2.4673507714    -1.2139730588
   27      H       6.7288352803    -2.5884321630    -0.9161970040
   28      H       6.5995181556    -1.1359613654    -1.9560243481
   29      H       7.3861108624    -1.2531070066     0.9448875060
   30      H       7.3331749274     0.2158124331    -0.0783927072
   31      H       5.3976259418    -0.0318435824     1.9459152567
   32      O      -2.0355165168     1.2453566758    -1.2806782525
   33      C      -2.0662145724    -2.9873980528     1.7279028737
   34      C      -5.7379688404    -0.5101222526    -0.5620886465
   35      C      -6.9374120615     0.4162190503    -0.1211816793
   36      C      -6.2859659018     1.8411946545    -0.2777503824
   37      C      -4.8629973509     1.4694280920    -0.8547625914
   38      O      -5.1091498312     0.2529092116    -1.6639837901
   39      H      -5.1171482149    -0.4808242002     1.5914172097
   40      H      -3.9872849834     1.5567024325     1.2234345420
   41      H      -1.2877708594    -2.8523055381     0.9493574549
   42      H      -6.0119069446    -1.5271021415    -0.9038599584
   43      H      -7.7908190445     0.2877456914    -0.8058872764
   44      H      -7.2734658806     0.2084972979     0.9073146067
   45      H      -6.8433303075     2.4654792253    -0.9938759534
   46      H      -6.2143958669     2.3812501115     0.6799812346
   47      H      -4.3737034797     2.2474007107    -1.4721612930
   48      H      -2.5992127603    -3.9398265665     1.5295403625
   49      H      -1.5880377260    -3.0290516250     2.7236853896
   50      H       1.2446122880     3.4174752093     0.0919127979
   51      H       2.5012479230     4.5695181939     0.6879791033
   52      H       2.0506853504     3.1171092515     1.6872892176
   53      H       0.1552815832    -0.6477770283    -1.2151081387
   54      H       0.0662818337     1.1480308218    -1.3030546223
   55      H       0.1711032730    -0.4979823370     1.3513007783
   56      H       0.1562990790     1.2913066874     1.2421959327
 ----------------------------------------------------------------

   11   -1510.2732533123      1.85E-09 Convergence criterion met
 Total energy in the final basis set = -1510.27325331
 Final energy is   -1510.27325331233
 **  OPTIMIZATION CONVERGED  **

                    Orbital Energies (a.u.)
 --------------------------------------------------------------

 Alpha MOs
 -- Occupied --
-18.942 -18.941 -18.933 -18.924 -18.888 -18.885 -18.883 -18.877
-18.873 -18.866 -10.108 -10.105 -10.098 -10.097 -10.078 -10.071
-10.062 -10.061 -10.058 -10.057 -10.056 -10.056 -10.041 -10.039
-10.036 -10.036 -10.021 -10.020 -10.020 -10.018  -1.020  -1.016
 -1.007  -1.002  -0.971  -0.968  -0.946  -0.941  -0.933  -0.930
 -0.764  -0.762  -0.730  -0.722  -0.711  -0.705  -0.699  -0.661
 -0.659  -0.620  -0.597  -0.589  -0.545  -0.544  -0.538  -0.536
 -0.514  -0.509  -0.488  -0.470  -0.459  -0.459  -0.458  -0.444
 -0.442  -0.431  -0.429  -0.412  -0.410  -0.409  -0.407  -0.401
 -0.393  -0.380  -0.379  -0.370  -0.367  -0.357  -0.352  -0.348
 -0.346  -0.340  -0.336  -0.334  -0.332  -0.329  -0.325  -0.312
 -0.311  -0.307  -0.305  -0.300  -0.297  -0.296  -0.283  -0.275
 -0.271  -0.255  -0.247  -0.244  -0.240  -0.236  -0.232  -0.187
 -0.182  -0.172  -0.167  -0.159  -0.157  -0.150  -0.148  -0.146
 -0.142

          Ground-State Mulliken Net Atomic Charges

     Atom                 Charge (a.u.)
  ----------------------------------------
      1 O                    -0.211977
      2 C                     0.207012
      3 C                    -0.079176
      4 C                    -0.076292
      5 C                     0.211228
      6 O                    -0.168095
      7 C                    -0.049269
      8 C                    -0.055366
      9 O                    -0.172120
     10 C                     0.213311
     11 C                    -0.077472
     12 C                    -0.080453
     13 C                     0.222412
     14 O                    -0.222560
     15 O                    -0.165143
     16 O                    -0.174913
     17 O                    -0.212767
     18 C                    -0.135884
     19 C                     0.024909
     20 C                    -0.144031
     21 C                    -0.143941
     22 C                     0.024802
     23 O                    -0.190135
     24 H                     0.087540
     25 H                     0.084818
     26 H                     0.085884
     27 H                     0.078653
     28 H                     0.074278
     29 H                     0.078168
     30 H                     0.073541
     31 H                     0.088266
     32 O                    -0.210080
     33 C                    -0.127649
     34 C                     0.024410
     35 C                    -0.143411
     36 C                    -0.144908
     37 C                     0.024067
     38 O                    -0.187589
     39 H                     0.085296
     40 H                     0.085472
     41 H                     0.086820
     42 H                     0.088492
     43 H                     0.078235
     44 H                     0.072798
     45 H                     0.078136
     46 H                     0.072380
     47 H                     0.088724
     48 H                     0.089353
     49 H                     0.090660
     50 H                     0.080506
     51 H                     0.084788
     52 H                     0.097920
     53 H                     0.099615
     54 H                     0.106091
     55 H                     0.095813
     56 H                     0.088832
  ----------------------------------------
  Sum of atomic charges =     0.000000

                    Cartesian Multipole Moments
 -----------------------------------------------------------------
    Charge (ESU x 10^10)
                 0.0000
    Dipole Moment (Debye)
         X       0.6774      Y       1.7240      Z       1.9857
       Tot       2.7155
    Quadrupole Moments (Debye-Ang)
        XX    -136.8919     XY      -3.2031     YY    -155.1019
        XZ     -13.3425     YZ      -1.7727     ZZ    -170.4893

 Total job time:  66.41s(wall), 3158.57s(cpu)
        *  Thank you very much for using Q-Chem.  Have a nice day.  *
