 Q-Chem 5.0, Q-Chem, Inc., Pleasanton, CA (2017)
 Q-Chem 5.0.1 for Intel X86 EM64T Linux

User input:
--------------------------------------------------------------
$molecule
0  1
O -3.6045944006 -2.5652065208 -0.4022136737
C -3.6940793 -1.7290755163 0.5230015694
C -4.6476606167 -0.4852446495 0.5910614049
C -3.9529538662 0.9219743179 0.319409619
C -2.4577655657 0.8428855861 -0.1752107644
O -1.6854867248 0.3087689775 0.8974907465
C -0.206605283 0.3586888227 0.755211249
C 0.4149410021 0.2944284534 -0.6872268387
O 1.8800596944 0.3698194944 -0.4681766099
C 2.6046894339 -0.3404439658 -1.4685048031
C 4.1514350467 -0.1890722361 -1.2417143998
C 4.6561799673 0.7451066067 -0.0595572424
C 3.5637820919 1.5478246371 0.7354882442
O 3.1068470708 1.2921578496 1.8707405531
O -2.9975381804 -1.8370745047 1.7689128115
O 3.2537390922 2.7303010109 -0.0214240336
O 2.0668615991 -1.0070186553 -2.3797835928
C 2.19365871 3.5066311302 0.6586455687
C 4.7516315001 -1.5913710464 -0.7795252399
C 6.3178157718 -1.568693445 -0.9828435534
C 6.7713837104 -0.6790623058 0.2333811436
C 5.3771957078 -0.316723725 0.8762222583
O 4.5805228644 -1.5519390227 0.6894426767
H 4.5900435077 0.1260697661 -2.2060032934
H 5.3764065956 1.4819021777 -0.4589992864
H 4.2311590276 -2.4673507714 -1.2139730588
H 6.7288352803 -2.588432163 -0.916197004
H 6.5995181556 -1.1359613654 -1.9560243481
H 7.3861108624 -1.2531070066 0.944887506
H 7.3331749274 0.2158124331 -0.0783927072
H 5.3976259418 -0.0318435824 1.9459152567
O -2.0355165168 1.2453566758 -1.2806782525
C -2.0662145724 -2.9873980528 1.7279028737
C -5.7379688404 -0.5101222526 -0.5620886465
C -6.9374120615 0.4162190503 -0.1211816793
C -6.2859659018 1.8411946545 -0.2777503824
C -4.8629973509 1.469428092 -0.8547625914
O -5.1091498312 0.2529092116 -1.6639837901
H -5.1171482149 -0.4808242002 1.5914172097
H -3.9872849834 1.5567024325 1.223434542
H -1.2877708594 -2.8523055381 0.9493574549
H -6.0119069446 -1.5271021415 -0.9038599584
H -7.7908190445 0.2877456914 -0.8058872764
H -7.2734658806 0.2084972979 0.9073146067
H -6.8433303075 2.4654792253 -0.9938759534
H -6.2143958669 2.3812501115 0.6799812346
H -4.3737034797 2.2474007107 -1.472161293
H -2.5992127603 -3.9398265665 1.5295403625
H -1.588037726 -3.029051625 2.7236853896
H 1.244612288 3.4174752093 0.0919127979
H 2.501247923 4.5695181939 0.6879791033
H 2.0506853504 3.1171092515 1.6872892176
H 0.1552815832 -0.6477770283 -1.2151081387
H 0.0662818337 1.1480308218 -1.3030546223
H 0.171103273 -0.497982337 1.3513007783
H 0.156299079 1.2913066874 1.2421959327
$end

$rem
JOBTYPE                   OPT
METHOD                    B3LYP
DFT_D                     d3_op
BASIS                     STO-3G
GEOM_OPT_MAX_CYCLES       100
GEOM_OPT_TOL_GRADIENT     300
GEOM_OPT_TOL_DISPLACEMENT 1200
GEOM_OPT_TOL_ENERGY       100
SYMMETRY                  False
THRESH                    12
SCF_CONVERGENCE           8
MAX_SUB_FILE_NUM          128
MEM_STATIC                400
MEM_TOTAL                 4000
$end
--------------------------------------------------------------

   16   -1510.2732337250      5.73E-09 Convergence criterion met
 Total energy in the final basis set = -1510.27323372
   14   -1510.2759198576      7.89E-09 Convergence criterion met
 Total energy in the final basis set = -1510.27591986
   14   -1510.2785623190      3.09E-09 Convergence criterion met
 Total energy in the final basis set = -1510.27856232
   14   -1510.2800672562      4.91E-09 Convergence criterion met
 Total energy in the final basis set = -1510.28006726
   13   -1510.2818613885      9.60E-09 Convergence criterion met
 Total energy in the final basis set = -1510.28186139
   14   -1510.2837661603      6.14E-09 Convergence criterion met
 Total energy in the final basis set = -1510.28376616
   14   -1510.2852287875      5.33E-09 Convergence criterion met
 Total energy in the final basis set = -1510.28522879
   13   -1510.2861144490      9.52E-09 Convergence criterion met
   12   -1510.2938330342      7.01E-09 Convergence criterion met
 Total energy in the final basis set = -1510.29383303
   12   -1510.2938322221      3.66E-09 Convergence criterion met
 Total energy in the final basis set = -1510.29383222
   11   -1510.2938562473      6.63E-09 Convergence criterion met
 Total energy in the final basis set = -1510.29385625
   11   -1510.2938534934      6.84E-09 Convergence criterion met
 Total energy in the final basis set = -1510.29385349
   10   -1510.2938478601      8.61E-09 Convergence criterion met
 Total energy in the final basis set = -1510.29384786
    9   -1510.2938501033      9.76E-09 Convergence criterion met
 Total energy in the final basis set = -1510.29385010

             Standard Nuclear Orientation (Angstroms)
    I     Atom           X                Y                Z
 ----------------------------------------------------------------
    1      O      -2.3679316221     1.7351343365     0.7437409272
    2      C      -3.1023960194     1.5962544910    -0.2590100605
    3      C      -4.2092313481     0.5100873023    -0.5061432220
    4      C      -3.6489484792    -0.9416413480    -0.8275964862
    5      C      -2.0848759512    -1.0626981928    -0.7644000581
    6      O      -1.5129446362     0.0487833868    -1.4504748924
    7      C      -0.0397397028     0.0981605277    -1.2774072424
    8      C       0.3597350298     0.4511271857     0.2010233544
    9      O       1.8346206816     0.5524641561     0.1795899276
   10      C       2.4055246808     0.2751117637     1.4649411714
   11      C       3.9521798566     0.1775525655     1.2473106326
   12      C       4.3265169182    -0.8596147327     0.1039653377
   13      C       3.0801830395    -1.6037025295    -0.5056655169
   14      O       2.7075682811    -1.6330162265    -1.6990015027
   15      O      -3.1172530970     2.4948456847    -1.3760500863
   16      O       2.4578187441    -2.3303652339     0.5578738795
   17      O       1.7530173220     0.1312410213     2.5191440983
   18      C       1.3391233393    -3.1656376284     0.0537928943
   19      C       4.5464540638     1.5157833901     0.6249360461
   20      C       6.1225150344     1.4559214301     0.7313950003
   21      C       6.4685705982     0.4435297904    -0.4236134441
   22      C       5.0253323127     0.0868026803    -0.9555389456
   23      O       4.2872099577     1.3649559700    -0.8238013338
   24      H       4.4268373278    -0.0786967863     2.2100306769
   25      H       5.0247062566    -1.6261145888     0.4881020780
   26      H       4.0831344855     2.4458212377     1.0077984156
   27      H       6.5586867847     2.4496919354     0.5427003260
   28      H       6.4572937771     1.1044213260     1.7204933965
   29      H       7.0635103392     0.9238440733    -1.2167066343
   30      H       7.0121402428    -0.4443155922    -0.0627833032
   31      H       4.9693784873    -0.2853774227    -1.9970778169
   32      O      -1.4339677392    -1.9788094449    -0.2124844648
   33      C      -2.0697256012     3.5277578823    -1.2102081393
   34      C      -5.0467606493     0.2087740392     0.8114277603
   35      C      -6.3821402970    -0.5249538248     0.3947580682
   36      C      -5.8431309374    -1.9626946472     0.0466546653
   37      C      -4.3023685552    -1.7894805122     0.3398163369
   38      O      -4.2650404909    -0.8519806472     1.4864631892
   39      H      -4.8525358052     0.8698092878    -1.3280813701
   40      H      -3.9836831247    -1.2801795183    -1.8260679772
   41      H      -1.0539821218     3.0891846360    -1.2897412003
   42      H      -5.1740936841     1.0800198249     1.4826535839
   43      H      -7.0846388476    -0.5527355489     1.2428971352
   44      H      -6.8786261177    -0.0370992918    -0.4594324543
   45      H      -6.2765013689    -2.7280431693     0.7098492797
   46      H      -6.0379749724    -2.2504742337    -0.9989897250
   47      H      -3.7452267493    -2.7166158509     0.5779357789
   48      H      -2.1542640829     4.0445738819    -0.2326518027
   49      H      -2.2196516683     4.2531952067    -2.0306737790
   50      H       0.3857547695    -2.5921687333    -0.0255600294
   51      H       1.2104038443    -3.9789035469     0.7914933948
   52      H       1.5833375637    -3.5959810958    -0.9374182798
   53      H      -0.1246004595     1.4036664724     0.5125340275
   54      H       0.0288941467    -0.3440201717     0.9012664902
   55      H       0.3052402158     0.9000273808    -1.9601541281
   56      H       0.4463476020    -0.8553111369    -1.5794740158
 ----------------------------------------------------------------

    9   -1510.2938501860      9.24E-09 Convergence criterion met
 Total energy in the final basis set = -1510.29385019
 Final energy is   -1510.29385018598
 **  OPTIMIZATION CONVERGED  **

                    Orbital Energies (a.u.)
 --------------------------------------------------------------

 Alpha MOs
 -- Occupied --
-18.950 -18.932 -18.928 -18.923 -18.893 -18.889 -18.885 -18.874
-18.869 -18.866 -10.115 -10.099 -10.096 -10.094 -10.074 -10.063
-10.063 -10.061 -10.060 -10.058 -10.055 -10.044 -10.040 -10.038
-10.034 -10.032 -10.022 -10.021 -10.018 -10.017  -1.027  -1.010
 -1.007  -0.999  -0.972  -0.967  -0.951  -0.934  -0.933  -0.928
 -0.766  -0.760  -0.729  -0.722  -0.709  -0.704  -0.695  -0.663
 -0.650  -0.615  -0.596  -0.583  -0.547  -0.543  -0.539  -0.534
 -0.515  -0.508  -0.485  -0.475  -0.464  -0.459  -0.456  -0.442
 -0.433  -0.432  -0.428  -0.414  -0.410  -0.405  -0.401  -0.400
 -0.388  -0.378  -0.374  -0.366  -0.365  -0.358  -0.351  -0.346
 -0.343  -0.342  -0.335  -0.333  -0.329  -0.326  -0.324  -0.312
 -0.308  -0.306  -0.303  -0.300  -0.292  -0.287  -0.286  -0.276
 -0.270  -0.256  -0.253  -0.246  -0.242  -0.236  -0.231  -0.190
 -0.177  -0.175  -0.168  -0.161  -0.153  -0.150  -0.146  -0.144
 -0.140

          Ground-State Mulliken Net Atomic Charges

     Atom                 Charge (a.u.)
  ----------------------------------------
      1 O                    -0.221411
      2 C                     0.213526
      3 C                    -0.079783
      4 C                    -0.077615
      5 C                     0.220982
      6 O                    -0.167851
      7 C                    -0.050569
      8 C                    -0.056382
      9 O                    -0.173880
     10 C                     0.214162
     11 C                    -0.078394
     12 C                    -0.077428
     13 C                     0.212991
     14 O                    -0.221520
     15 O                    -0.168522
     16 O                    -0.176942
     17 O                    -0.205793
     18 C                    -0.146692
     19 C                     0.025947
     20 C                    -0.143978
     21 C                    -0.143902
     22 C                     0.024348
     23 O                    -0.186735
     24 H                     0.085472
     25 H                     0.083589
     26 H                     0.082134
     27 H                     0.077300
     28 H                     0.073718
     29 H                     0.077294
     30 H                     0.072896
     31 H                     0.088803
     32 O                    -0.210058
     33 C                    -0.128854
     34 C                     0.025522
     35 C                    -0.143712
     36 C                    -0.144187
     37 C                     0.023968
     38 O                    -0.186822
     39 H                     0.086815
     40 H                     0.087401
     41 H                     0.085610
     42 H                     0.085194
     43 H                     0.078749
     44 H                     0.073787
     45 H                     0.079122
     46 H                     0.073335
     47 H                     0.090916
     48 H                     0.090129
     49 H                     0.090300
     50 H                     0.105283
     51 H                     0.084847
     52 H                     0.084274
     53 H                     0.095773
     54 H                     0.099469
     55 H                     0.095642
     56 H                     0.101733
  ----------------------------------------
  Sum of atomic charges =     0.000000

                    Cartesian Multipole Moments
 -----------------------------------------------------------------
    Charge (ESU x 10^10)
                 0.0000
    Dipole Moment (Debye)
         X      -0.7106      Y       0.2985      Z      -1.6550
       Tot       1.8257
    Quadrupole Moments (Debye-Ang)
        XX    -132.7090     XY       0.7273     YY    -153.0151
        XZ       8.8407     YZ       1.8032     ZZ    -170.0035

 Total job time:  93.49s(wall), 4454.10s(cpu)
        *  Thank you very much for using Q-Chem.  Have a nice day.  *
