 Q-Chem 5.0, Q-Chem, Inc., Pleasanton, CA (2017)
 Q-Chem 5.0.1 for Intel X86 EM64T Linux

User input:
--------------------------------------------------------------
$molecule
0  1
O -3.94934 -3.66094 2.70899
C -3.26408 -4.56952 2.26188
C -3.36658 -6.02376 2.66595
C -2.22985 -6.5949 3.52937
C -1.20808 -5.60367 4.04077
O -0.78031 -4.80802 3.01638
C 0.26012 -3.90373 3.4024
C 0.00679 -3.38239 4.81313
O 1.05513 -2.47857 5.19648
C 0.65602 -1.3822 5.88773
C 1.81019 -0.52078 6.34216
C 3.20281 -1.07967 6.01579
C 3.24283 -2.20016 4.99618
O 3.26856 -2.05372 3.78273
O -2.43691 -4.29677 1.21609
O 3.61654 -3.40588 5.50834
O -0.50966 -1.07567 6.10506
C 4.0603 -4.48134 4.76719
C 1.88041 0.85698 5.66058
C 2.64752 1.82749 6.55739
C 4.05494 1.27606 6.43364
C 3.83023 0.17922 5.38524
O 2.7774 0.6764 4.59226
H 1.68036 -0.38907 7.44041
H 3.73962 -1.42021 6.9298
H 0.88228 1.27187 5.4005
H 2.61131 2.82374 6.06084
H 2.26668 1.92427 7.59689
H 4.71181 2.07951 6.03254
H 4.48707 0.86019 7.36958
H 4.77884 -0.04962 4.85079
O -0.42791 -6.05093 4.87583
C -2.26292 -3.04278 0.66784
C -4.56202 -6.26802 3.61789
C -4.98434 -7.73605 3.56686
C -3.83954 -8.38261 4.31324
C -3.04122 -7.14107 4.72163
O -4.01911 -6.15022 4.90835
H -3.55392 -6.60388 1.73454
H -1.66668 -7.39362 2.99624
H -1.87369 -2.34021 1.43546
H -5.44144 -5.62386 3.39722
H -5.90753 -7.83615 4.18182
H -5.17718 -8.13802 2.54898
H -4.25022 -8.89169 5.21366
H -3.22606 -9.09525 3.72049
H -2.41257 -7.37501 5.60842
H -3.22665 -2.66298 0.26655
H -1.52985 -3.10724 -0.16207
H 4.28772 -5.32381 5.45191
H 4.98621 -4.20784 4.2182
H 3.28976 -4.81138 4.04713
H -0.99625 -2.89932 4.78061
H -0.02254 -4.08406 5.65924
H 0.30152 -3.06513 2.67597
H 1.22816 -4.43573 3.37249
$end

$opt
CONSTRAINT
tors           1           2           3           4    -107.704
tors           3           4           5           6     -48.530
tors           4           5           6           7    -175.844
tors           5           6           7           8     -37.771
tors           6           7           8           9    +179.851
tors           7           8           9          10    +139.996
tors           8           9          10          11    +176.104
tors           9          10          11          12      -3.437
tors          11          12          13          14     +84.808
ENDCONSTRAINT
$end

$rem
JOBTYPE                   OPT
METHOD                    B3LYP
DFT_D                     d3_op
BASIS                     STO-3G
GEOM_OPT_MAX_CYCLES       100
GEOM_OPT_TOL_GRADIENT     300
GEOM_OPT_TOL_DISPLACEMENT 1200
GEOM_OPT_TOL_ENERGY       100
SYMMETRY                  False
THRESH                    12
SCF_CONVERGENCE           8
MAX_SUB_FILE_NUM          128
MEM_STATIC                400
MEM_TOTAL                 4000
$end
--------------------------------------------------------------

   16   -1510.1167529474      3.67E-09 Convergence criterion met
 Total energy in the final basis set = -1510.11675295
   15   -1510.1903955360      1.40E-09 Convergence criterion met
 Total energy in the final basis set = -1510.19039554
   14   -1510.2304799243      6.22E-09 Convergence criterion met
 Total energy in the final basis set = -1510.23047992
   15   -1510.2525070822      1.25E-09 Convergence criterion met
 Total energy in the final basis set = -1510.25250708
   13   -1510.2633069587      9.93E-09 Convergence criterion met
 Total energy in the final basis set = -1510.26330696
   13   -1510.2685373829      9.78E-09 Convergence criterion met
 Total energy in the final basis set = -1510.26853738
   13   -1510.2714250156      7.24E-09 Convergence criterion met
 Total energy in the final basis set = -1510.27142502
   13   -1510.2726129738      4.91E-09 Convergence criterion met
   11   -1510.2735513462      3.25E-09 Convergence criterion met
 Total energy in the final basis set = -1510.27355135
   10   -1510.2735621775      8.83E-09 Convergence criterion met
 Total energy in the final basis set = -1510.27356218
    9   -1510.2735731158      7.58E-09 Convergence criterion met
 Total energy in the final basis set = -1510.27357312
    9   -1510.2735817371      8.16E-09 Convergence criterion met
 Total energy in the final basis set = -1510.27358174
    9   -1510.2735865880      8.58E-09 Convergence criterion met
 Total energy in the final basis set = -1510.27358659
    9   -1510.2735881686      2.98E-09 Convergence criterion met
 Total energy in the final basis set = -1510.27358817

             Standard Nuclear Orientation (Angstroms)
    I     Atom           X                Y                Z
 ----------------------------------------------------------------
    1      O      -3.1709064125    -2.5206721471     0.0441200203
    2      C      -3.5496106406    -1.6008869019     0.8009727903
    3      C      -4.5993023450    -0.4777166148     0.4874457483
    4      C      -4.0241895540     0.9857534842     0.2724720571
    5      C      -2.4832315301     1.0707562408    -0.0597136109
    6      O      -1.7712454871     0.2668544257     0.8766535591
    7      C      -0.2883080647     0.3067076524     0.7703229931
    8      C       0.3322883654     0.3757193266    -0.6724019044
    9      O       1.8009770192     0.4075250815    -0.4736314466
   10      C       2.4786099179    -0.3927673534    -1.4404282888
   11      C       4.0353343479    -0.2743686493    -1.2830744469
   12      C       4.6373469990     0.7205112339    -0.1993550993
   13      C       3.6177759976     1.4156881821     0.7760280646
   14      O       3.1465529986     0.9701113048     1.8435061850
   15      O      -3.2343404215    -1.5317174669     2.1988344499
   16      O       3.3561665822     2.7312498217     0.2614632960
   17      O       1.8957007376    -1.1030187095    -2.2897432664
   18      C       2.3693653522     3.4229427079     1.1187402849
   19      C       4.6685602570    -1.6607519478    -0.8113369078
   20      C       6.1813437331    -1.6913947176    -1.2594735449
   21      C       6.8141801090    -0.6692949851    -0.2442420728
   22      C       5.5547954493    -0.2805259615     0.6262095684
   23      O       4.7481335852    -1.5230470055     0.6584468843
   24      H       4.4218791675    -0.0101404317    -2.2848679142
   25      H       5.2236148284     1.5138693978    -0.6956399399
   26      H       4.0722080523    -2.5503857165    -1.0934465850
   27      H       6.5976223679    -2.7027526078    -1.1271409300
   28      H       6.3129309802    -1.3897336114    -2.3107681342
   29      H       7.5842856967    -1.1460111585     0.3825398938
   30      H       7.2575966878     0.2070761133    -0.7431677772
   31      H       5.7770653648     0.0564484948     1.6570436181
   32      O      -1.9824100174     1.7980272366    -0.9458200137
   33      C      -2.2713893671    -2.5997123267     2.5484350911
   34      C      -5.3958728442    -0.6957886243    -0.8692968738
   35      C      -6.7934715488     0.0202814265    -0.7126206055
   36      C      -6.3509658539     1.5317413143    -0.7384045563
   37      C      -4.8060666923     1.4005687114    -1.0410321270
   38      O      -4.6972095453     0.1633845693    -1.8527627301
   39      H      -5.2977038403    -0.4621837415     1.3440570775
   40      H      -4.2369969170     1.6365620444     1.1407106627
   41      H      -1.3292007308    -2.5059713390     1.9715304760
   42      H      -5.4216506395    -1.7459373286    -1.2199539611
   43      H      -7.4452138071    -0.2213972585    -1.5675054698
   44      H      -7.3097023760    -0.2604730833     0.2191914078
   45      H      -6.8566120306     2.0899554483    -1.5420644672
   46      H      -6.5398424758     2.0443172644     0.2186838538
   47      H      -4.3438625987     2.2526673499    -1.5765456890
   48      H      -2.6949653957    -3.6086370940     2.3647385863
   49      H      -2.0573783607    -2.4786655252     3.6262487803
   50      H       2.3087737041     4.4617255226     0.7450970123
   51      H       2.6787538338     3.4255466082     2.1837958440
   52      H       1.3690952251     2.9487768838     1.0454013917
   53      H       0.0574393441    -0.5069924753    -1.2886603789
   54      H      -0.0145409540     1.2983522082    -1.1814430613
   55      H       0.0609770650    -0.6135710843     1.2812969763
   56      H       0.0855969168     1.1790886419     1.3516153811
 ----------------------------------------------------------------

    8   -1510.2735887932      9.29E-09 Convergence criterion met
 Total energy in the final basis set = -1510.27358879
 Final energy is   -1510.27358879318
 **  OPTIMIZATION CONVERGED  **

                    Orbital Energies (a.u.)
 --------------------------------------------------------------

 Alpha MOs
 -- Occupied --
-18.947 -18.941 -18.927 -18.926 -18.888 -18.885 -18.884 -18.877
-18.868 -18.863 -10.110 -10.104 -10.096 -10.095 -10.079 -10.066
-10.061 -10.060 -10.060 -10.058 -10.057 -10.056 -10.041 -10.040
-10.035 -10.035 -10.020 -10.020 -10.019 -10.018  -1.021  -1.016
 -1.004  -1.001  -0.970  -0.968  -0.948  -0.940  -0.930  -0.928
 -0.764  -0.761  -0.729  -0.722  -0.710  -0.704  -0.699  -0.660
 -0.659  -0.619  -0.597  -0.589  -0.545  -0.543  -0.538  -0.537
 -0.514  -0.509  -0.488  -0.473  -0.459  -0.457  -0.456  -0.442
 -0.440  -0.429  -0.429  -0.410  -0.409  -0.407  -0.406  -0.402
 -0.393  -0.383  -0.378  -0.369  -0.367  -0.354  -0.352  -0.347
 -0.344  -0.336  -0.335  -0.333  -0.331  -0.328  -0.326  -0.312
 -0.310  -0.307  -0.305  -0.300  -0.297  -0.292  -0.287  -0.274
 -0.272  -0.251  -0.249  -0.248  -0.238  -0.234  -0.233  -0.190
 -0.180  -0.171  -0.168  -0.159  -0.157  -0.146  -0.145  -0.143
 -0.143

          Ground-State Mulliken Net Atomic Charges

     Atom                 Charge (a.u.)
  ----------------------------------------
      1 O                    -0.216320
      2 C                     0.212661
      3 C                    -0.081049
      4 C                    -0.075655
      5 C                     0.215822
      6 O                    -0.167156
      7 C                    -0.047023
      8 C                    -0.061613
      9 O                    -0.171562
     10 C                     0.212245
     11 C                    -0.078434
     12 C                    -0.080487
     13 C                     0.219018
     14 O                    -0.218856
     15 O                    -0.168709
     16 O                    -0.172806
     17 O                    -0.213412
     18 C                    -0.127733
     19 C                     0.025488
     20 C                    -0.143181
     21 C                    -0.144914
     22 C                     0.025890
     23 O                    -0.187748
     24 H                     0.086819
     25 H                     0.084913
     26 H                     0.086405
     27 H                     0.078590
     28 H                     0.074338
     29 H                     0.078030
     30 H                     0.073533
     31 H                     0.085172
     32 O                    -0.211608
     33 C                    -0.127159
     34 C                     0.023353
     35 C                    -0.142428
     36 C                    -0.145441
     37 C                     0.023245
     38 O                    -0.190191
     39 H                     0.084563
     40 H                     0.086350
     41 H                     0.086477
     42 H                     0.088890
     43 H                     0.078182
     44 H                     0.072894
     45 H                     0.078389
     46 H                     0.072709
     47 H                     0.089972
     48 H                     0.087410
     49 H                     0.089337
     50 H                     0.088813
     51 H                     0.088526
     52 H                     0.081762
     53 H                     0.102349
     54 H                     0.108310
     55 H                     0.095454
     56 H                     0.087573
  ----------------------------------------
  Sum of atomic charges =    -0.000000

                    Cartesian Multipole Moments
 -----------------------------------------------------------------
    Charge (ESU x 10^10)
                 0.0000
    Dipole Moment (Debye)
         X       0.1091      Y       1.7962      Z       1.5307
       Tot       2.3624
    Quadrupole Moments (Debye-Ang)
        XX    -134.4110     XY      -1.2052     YY    -157.6614
        XZ     -11.3701     YZ      -0.3505     ZZ    -166.5494

 Total job time:  60.73s(wall), 2884.68s(cpu)
        *  Thank you very much for using Q-Chem.  Have a nice day.  *
