 Q-Chem 5.0, Q-Chem, Inc., Pleasanton, CA (2017)
 Q-Chem 5.0.1 for Intel X86 EM64T Linux

User input:
--------------------------------------------------------------
$molecule
0  1
O -3.1709064125 -2.5206721471 0.0441200203
C -3.5496106406 -1.6008869019 0.8009727903
C -4.599302345 -0.4777166148 0.4874457483
C -4.024189554 0.9857534842 0.2724720571
C -2.4832315301 1.0707562408 -0.0597136109
O -1.7712454871 0.2668544257 0.8766535591
C -0.2883080647 0.3067076524 0.7703229931
C 0.3322883654 0.3757193266 -0.6724019044
O 1.8009770192 0.4075250815 -0.4736314466
C 2.4786099179 -0.3927673534 -1.4404282888
C 4.0353343479 -0.2743686493 -1.2830744469
C 4.637346999 0.7205112339 -0.1993550993
C 3.6177759976 1.4156881821 0.7760280646
O 3.1465529986 0.9701113048 1.843506185
O -3.2343404215 -1.5317174669 2.1988344499
O 3.3561665822 2.7312498217 0.261463296
O 1.8957007376 -1.1030187095 -2.2897432664
C 2.3693653522 3.4229427079 1.1187402849
C 4.668560257 -1.6607519478 -0.8113369078
C 6.1813437331 -1.6913947176 -1.2594735449
C 6.814180109 -0.6692949851 -0.2442420728
C 5.5547954493 -0.2805259615 0.6262095684
O 4.7481335852 -1.5230470055 0.6584468843
H 4.4218791675 -0.0101404317 -2.2848679142
H 5.2236148284 1.5138693978 -0.6956399399
H 4.0722080523 -2.5503857165 -1.093446585
H 6.5976223679 -2.7027526078 -1.12714093
H 6.3129309802 -1.3897336114 -2.3107681342
H 7.5842856967 -1.1460111585 0.3825398938
H 7.2575966878 0.2070761133 -0.7431677772
H 5.7770653648 0.0564484948 1.6570436181
O -1.9824100174 1.7980272366 -0.9458200137
C -2.2713893671 -2.5997123267 2.5484350911
C -5.3958728442 -0.6957886243 -0.8692968738
C -6.7934715488 0.0202814265 -0.7126206055
C -6.3509658539 1.5317413143 -0.7384045563
C -4.8060666923 1.4005687114 -1.041032127
O -4.6972095453 0.1633845693 -1.8527627301
H -5.2977038403 -0.4621837415 1.3440570775
H -4.236996917 1.6365620444 1.1407106627
H -1.3292007308 -2.505971339 1.971530476
H -5.4216506395 -1.7459373286 -1.2199539611
H -7.4452138071 -0.2213972585 -1.5675054698
H -7.309702376 -0.2604730833 0.2191914078
H -6.8566120306 2.0899554483 -1.5420644672
H -6.5398424758 2.0443172644 0.2186838538
H -4.3438625987 2.2526673499 -1.576545689
H -2.6949653957 -3.608637094 2.3647385863
H -2.0573783607 -2.4786655252 3.6262487803
H 2.3087737041 4.4617255226 0.7450970123
H 2.6787538338 3.4255466082 2.183795844
H 1.3690952251 2.9487768838 1.0454013917
H 0.0574393441 -0.5069924753 -1.2886603789
H -0.014540954 1.2983522082 -1.1814430613
H 0.060977065 -0.6135710843 1.2812969763
H 0.0855969168 1.1790886419 1.3516153811
$end

$rem
JOBTYPE                   OPT
METHOD                    B3LYP
DFT_D                     d3_op
BASIS                     STO-3G
GEOM_OPT_MAX_CYCLES       100
GEOM_OPT_TOL_GRADIENT     300
GEOM_OPT_TOL_DISPLACEMENT 1200
GEOM_OPT_TOL_ENERGY       100
SYMMETRY                  False
THRESH                    12
SCF_CONVERGENCE           8
MAX_SUB_FILE_NUM          128
MEM_STATIC                400
MEM_TOTAL                 4000
$end
--------------------------------------------------------------

   16   -1510.2736936847      5.17E-09 Convergence criterion met
 Total energy in the final basis set = -1510.27369368
   14   -1510.2763385150      6.26E-09 Convergence criterion met
 Total energy in the final basis set = -1510.27633851
   13   -1510.2788454423      9.79E-09 Convergence criterion met
 Total energy in the final basis set = -1510.27884544
   14   -1510.2813546531      5.03E-09 Convergence criterion met
 Total energy in the final basis set = -1510.28135465
   14   -1510.2834731326      9.65E-09 Convergence criterion met
 Total energy in the final basis set = -1510.28347313
   14   -1510.2843989359      8.70E-09 Convergence criterion met
 Total energy in the final basis set = -1510.28439894
   14   -1510.2856630796      6.30E-09 Convergence criterion met
 Total energy in the final basis set = -1510.28566308
   13   -1510.2855497753      3.71E-09 Convergence criterion met
   12   -1510.2984882177      4.49E-09 Convergence criterion met
 Total energy in the final basis set = -1510.29848822
   12   -1510.2985040184      2.46E-09 Convergence criterion met
 Total energy in the final basis set = -1510.29850402
   11   -1510.2985089230      7.92E-09 Convergence criterion met
 Total energy in the final basis set = -1510.29850892
   11   -1510.2985166283      3.51E-09 Convergence criterion met
 Total energy in the final basis set = -1510.29851663
   10   -1510.2985210092      8.08E-09 Convergence criterion met
 Total energy in the final basis set = -1510.29852101
   10   -1510.2985246621      9.15E-09 Convergence criterion met
 Total energy in the final basis set = -1510.29852466

             Standard Nuclear Orientation (Angstroms)
    I     Atom           X                Y                Z
 ----------------------------------------------------------------
    1      O      -2.0747725740    -1.0113898340    -1.0907620274
    2      C      -2.6614873915    -1.2651570716    -0.0124135601
    3      C      -3.9176523348    -0.5333082484     0.5701949966
    4      C      -3.9688644928     1.0113759786     0.2207227426
    5      C      -2.7024190379     1.5533641348    -0.5367192385
    6      O      -1.5753595455     1.4289892550     0.3378827662
    7      C      -0.3377852432     1.8868797705    -0.3401780584
    8      C       0.0591960725     0.9579647447    -1.5571498080
    9      O       1.5253476189     0.7294420848    -1.5899943997
   10      C       1.8942615534    -0.3752532184    -0.7644867884
   11      C       3.4569445259    -0.5416559826    -0.8488582621
   12      C       4.2840426496     0.5147196944    -0.0074871611
   13      C       3.3779983582     1.4744284053     0.8297920199
   14      O       2.1822073704     1.2892375454     1.1556692330
   15      O      -2.3109834095    -2.3276258768     0.8654786312
   16      O       4.1397949561     2.6173196047     1.2149219884
   17      O       1.0960531990    -1.1376921038    -0.1778199107
   18      C       3.3070437998     3.5266127807     2.0388061138
   19      C       3.9221041646    -1.9011581399    -0.1787129236
   20      C       5.3740024072    -2.2365490524    -0.6960807013
   21      C       6.2253540753    -1.1704018615     0.0891537427
   22      C       5.1080674177    -0.4576374657     0.9502810774
   23      O       4.1381808066    -1.5346905342     1.2411955940
   24      H       3.7456906861    -0.4912901538    -1.9141391074
   25      H       4.9562430634     1.1208546036    -0.6403510339
   26      H       3.1783121099    -2.7177428520    -0.2550727846
   27      H       5.6565371457    -3.2639916006    -0.4161501208
   28      H       5.4609452228    -2.1304707811    -1.7892344153
   29      H       6.9704110228    -1.6482904929     0.7447560076
   30      H       6.7425290618    -0.4634021966    -0.5789030772
   31      H       5.4624627582     0.0156752536     1.8866707241
   32      O      -2.6648074491     2.0672342123    -1.6750621688
   33      C      -1.1318606599    -3.0614960147     0.3370785862
   34      C      -5.2381994178    -1.0386101799    -0.1631035019
   35      C      -6.4950633026    -0.5293741924     0.6489560049
   36      C      -6.5329119050     0.9889746143     0.2340539196
   37      C      -5.2608669794     1.0788256279    -0.6942329303
   38      O      -5.2606130380    -0.2256796237    -1.3992004478
   39      H      -3.9597637872    -0.7163943110     1.6578992438
   40      H      -4.0934695509     1.6055478941     1.1446521529
   41      H      -0.2842804539    -2.3671772021     0.1337553197
   42      H      -5.2420526711    -2.1190970854    -0.4061674349
   43      H      -7.4038290932    -1.0616187124     0.3261076947
   44      H      -6.3692570116    -0.6700562417     1.7345094745
   45      H      -7.4443594853     1.2276143103    -0.3371154427
   46      H      -6.4697423531     1.6684580030     1.0990464626
   47      H      -5.2496147016     1.9103005467    -1.4255613984
   48      H      -1.3913815187    -3.6084003233    -0.5922232133
   49      H      -0.8546101523    -3.7866395816     1.1233819133
   50      H       3.9398454367     4.4068742331     2.2545441822
   51      H       3.0006313948     3.0455702908     2.9901140143
   52      H       2.3951259126     3.8458568900     1.4947307875
   53      H      -0.5076662489     0.0000659753    -1.4648130998
   54      H      -0.1924744913     1.4440199647    -2.5193399733
   55      H       0.4639769813     1.8193549812     0.4295313613
   56      H      -0.4456136994     2.9399534703    -0.6761169156
 ----------------------------------------------------------------

   10   -1510.2985249988      6.42E-09 Convergence criterion met
 Total energy in the final basis set = -1510.29852500
 Final energy is   -1510.29852499883
 **  OPTIMIZATION CONVERGED  **

                    Orbital Energies (a.u.)
 --------------------------------------------------------------

 Alpha MOs
 -- Occupied --
-18.950 -18.927 -18.923 -18.918 -18.891 -18.891 -18.881 -18.871
-18.867 -18.862 -10.113 -10.099 -10.093 -10.088 -10.073 -10.065
-10.060 -10.055 -10.051 -10.048 -10.044 -10.044 -10.038 -10.037
-10.031 -10.029 -10.024 -10.022 -10.016 -10.015  -1.025  -1.006
 -1.002  -0.996  -0.974  -0.964  -0.948  -0.931  -0.927  -0.923
 -0.766  -0.756  -0.727  -0.718  -0.710  -0.701  -0.684  -0.671
 -0.649  -0.611  -0.593  -0.577  -0.548  -0.540  -0.537  -0.530
 -0.516  -0.503  -0.479  -0.462  -0.461  -0.456  -0.449  -0.445
 -0.434  -0.429  -0.422  -0.422  -0.417  -0.409  -0.398  -0.396
 -0.384  -0.379  -0.366  -0.363  -0.357  -0.354  -0.350  -0.347
 -0.344  -0.340  -0.332  -0.330  -0.324  -0.321  -0.316  -0.313
 -0.307  -0.304  -0.299  -0.298  -0.290  -0.283  -0.275  -0.272
 -0.270  -0.261  -0.253  -0.240  -0.237  -0.229  -0.225  -0.190
 -0.178  -0.169  -0.166  -0.153  -0.150  -0.148  -0.147  -0.140
 -0.137

          Ground-State Mulliken Net Atomic Charges

     Atom                 Charge (a.u.)
  ----------------------------------------
      1 O                    -0.218731
      2 C                     0.218649
      3 C                    -0.078116
      4 C                    -0.079721
      5 C                     0.212334
      6 O                    -0.175435
      7 C                    -0.062022
      8 C                    -0.065984
      9 O                    -0.178208
     10 C                     0.223068
     11 C                    -0.080435
     12 C                    -0.077999
     13 C                     0.218295
     14 O                    -0.210004
     15 O                    -0.168245
     16 O                    -0.165675
     17 O                    -0.217596
     18 C                    -0.128376
     19 C                     0.025176
     20 C                    -0.143821
     21 C                    -0.143673
     22 C                     0.025710
     23 O                    -0.188019
     24 H                     0.085812
     25 H                     0.088700
     26 H                     0.089500
     27 H                     0.078681
     28 H                     0.074243
     29 H                     0.078824
     30 H                     0.074356
     31 H                     0.083810
     32 O                    -0.215904
     33 C                    -0.144896
     34 C                     0.025199
     35 C                    -0.143954
     36 C                    -0.143846
     37 C                     0.024260
     38 O                    -0.188151
     39 H                     0.087022
     40 H                     0.082943
     41 H                     0.119705
     42 H                     0.082096
     43 H                     0.077235
     44 H                     0.073522
     45 H                     0.077159
     46 H                     0.072482
     47 H                     0.089492
     48 H                     0.078661
     49 H                     0.083754
     50 H                     0.093673
     51 H                     0.092104
     52 H                     0.092062
     53 H                     0.115914
     54 H                     0.090166
     55 H                     0.106045
     56 H                     0.078163
  ----------------------------------------
  Sum of atomic charges =     0.000000

                    Cartesian Multipole Moments
 -----------------------------------------------------------------
    Charge (ESU x 10^10)
                -0.0000
    Dipole Moment (Debye)
         X       2.4812      Y       1.0030      Z       1.5589
       Tot       3.0971
    Quadrupole Moments (Debye-Ang)
        XX    -138.1351     XY       1.9103     YY    -150.7961
        XZ     -11.4080     YZ       8.1003     ZZ    -164.3495

 Total job time:  154.52s(wall), 7364.78s(cpu)
        *  Thank you very much for using Q-Chem.  Have a nice day.  *
