 Q-Chem 5.0, Q-Chem, Inc., Pleasanton, CA (2017)
 Q-Chem 5.0.1 for Intel X86 EM64T Linux

User input:
--------------------------------------------------------------
$molecule
0  1
O -3.94934 -3.66094 2.70899
C -3.26408 -4.56952 2.26188
C -3.36658 -6.02376 2.66595
C -2.43224 -6.50925 3.78629
C -1.62543 -5.44684 4.49933
O -0.89204 -4.73505 3.59329
C 0.04669 -3.84371 4.20449
C -0.55831 -3.22283 5.45933
O 0.38873 -2.33241 6.07019
C -0.14445 -1.25269 6.69394
C 0.88346 -0.43947 7.44409
C 2.3043 -1.02199 7.43183
C 2.56597 -2.10408 6.40357
O 2.72983 -1.91937 5.20624
O -2.28871 -4.27039 1.36351
O 2.91911 -3.30936 6.92875
O -1.32519 -0.93109 6.64539
C 3.54942 -4.32128 6.23441
C 1.14267 0.95937 6.85579
C 1.69104 1.87549 7.94873
C 3.07591 1.28746 8.14466
C 3.09088 0.23743 7.02662
O 2.26793 0.79309 6.02693
H 0.49953 -0.34229 8.48507
H 2.5855 -1.42061 8.43267
H 0.2446 1.41158 6.38143
H 1.79598 2.88805 7.49679
H 1.07345 1.95008 8.86954
H 3.82611 2.08588 7.95099
H 3.25887 0.82293 9.13784
H 4.13474 -0.00132 6.72476
O -1.12873 -5.82844 5.55516
C -2.02004 -2.99827 0.90338
C -4.73792 -6.32236 3.31729
C -5.06252 -7.81073 3.20256
C -4.08589 -8.38603 4.20224
C -3.47576 -7.09718 4.76325
O -4.52135 -6.16275 4.6956
H -3.31214 -6.62638 1.73152
H -1.71386 -7.28137 3.42983
H -1.73282 -2.33824 1.74988
H -5.57058 -5.72629 2.88247
H -6.09513 -7.95193 3.59552
H -5.00043 -8.23487 2.17735
H -4.66364 -8.92001 4.98939
H -3.31006 -9.05916 3.77735
H -3.06873 -7.29408 5.77875
H -2.91126 -2.58164 0.38726
H -1.17733 -3.04242 0.1835
H 3.70852 -5.18317 6.91421
H 4.53733 -3.96993 5.86767
H 2.93941 -4.65565 5.37605
H -1.45097 -2.67309 5.08078
H -0.9184 -3.82657 6.30678
H 0.34551 -3.06274 3.47353
H 0.94516 -4.42023 4.48901
$end

$opt
CONSTRAINT
tors           1           2           3           4     -93.502
tors           3           4           5           6     -55.808
tors           4           5           6           7    -171.283
tors           5           6           7           8     -37.771
tors           6           7           8           9    +179.851
tors           7           8           9          10    +147.013
tors           8           9          10          11    +173.642
tors           9          10          11          12      -3.437
tors          11          12          13          14     +75.928
ENDCONSTRAINT
$end

$rem
JOBTYPE                   OPT
METHOD                    B3LYP
DFT_D                     d3_op
BASIS                     STO-3G
GEOM_OPT_MAX_CYCLES       100
GEOM_OPT_TOL_GRADIENT     300
GEOM_OPT_TOL_DISPLACEMENT 1200
GEOM_OPT_TOL_ENERGY       100
SYMMETRY                  False
THRESH                    12
SCF_CONVERGENCE           8
MAX_SUB_FILE_NUM          128
MEM_STATIC                400
MEM_TOTAL                 4000
$end
--------------------------------------------------------------

   16   -1510.1108668625      3.92E-09 Convergence criterion met
 Total energy in the final basis set = -1510.11086686
   15   -1510.1850161905      1.51E-09 Convergence criterion met
 Total energy in the final basis set = -1510.18501619
   14   -1510.2257941552      3.45E-09 Convergence criterion met
 Total energy in the final basis set = -1510.22579416
   15   -1510.2495428731      1.24E-09 Convergence criterion met
 Total energy in the final basis set = -1510.24954287
    2   -1510.2495428728      7.00E-10 Convergence criterion met
 Total energy in the final basis set = -1510.24954287
   14   -1510.2612951798      5.63E-09 Convergence criterion met
 Total energy in the final basis set = -1510.26129518
   14   -1510.2674213165      4.81E-09 Convergence criterion met
 Total energy in the final basis set = -1510.26742132
   13   -1510.2710229326      8.87E-09 Convergence criterion met
    9   -1510.2734980389      7.06E-09 Convergence criterion met
 Total energy in the final basis set = -1510.27349804
    9   -1510.2734961950      7.11E-09 Convergence criterion met
 Total energy in the final basis set = -1510.27349619
    9   -1510.2735005551      7.15E-09 Convergence criterion met
 Total energy in the final basis set = -1510.27350056
    9   -1510.2735045087      8.46E-09 Convergence criterion met
 Total energy in the final basis set = -1510.27350451
    9   -1510.2735065695      6.29E-09 Convergence criterion met
 Total energy in the final basis set = -1510.27350657
    9   -1510.2735076580      3.41E-09 Convergence criterion met
 Total energy in the final basis set = -1510.27350766

             Standard Nuclear Orientation (Angstroms)
    I     Atom           X                Y                Z
 ----------------------------------------------------------------
    1      O      -3.2416626717    -2.3829494776    -0.1909002702
    2      C      -3.6314835228    -1.5665946893     0.6715292501
    3      C      -4.6650903966    -0.4014261254     0.4924990326
    4      C      -4.0263714220     1.0104406914     0.1389028936
    5      C      -2.4987258940     0.9665650155    -0.2474118635
    6      O      -1.8050319563     0.3413132627     0.8314450177
    7      C      -0.3206206755     0.3766324299     0.7640162858
    8      C       0.3449449731     0.2053855364    -0.6488589524
    9      O       1.8072143684     0.2852488556    -0.4099288941
   10      C       2.5233971883    -0.5476223552    -1.3207123997
   11      C       4.0741502893    -0.3504483399    -1.1850579638
   12      C       4.6482283427     0.7396611583    -0.1832015713
   13      C       3.6342056628     1.3817004996     0.8322933381
   14      O       3.1565248834     0.8826657730     1.8727254160
   15      O      -3.2762525021    -1.6343189062     2.0589434570
   16      O       3.3739687956     2.7232549756     0.3881094449
   17      O       1.9755442160    -1.3387323287    -2.1205978804
   18      C       2.4218287392     3.3857254264     1.3055686987
   19      C       4.7980083915    -1.6708893181    -0.6574712370
   20      C       6.2814264954    -1.6593855014    -1.1942457559
   21      C       6.9066203771    -0.5176282215    -0.3104907088
   22      C       5.6883251130    -0.1504062011     0.6270102720
   23      O       4.9614862488    -1.4307984865     0.7922952829
   24      H       4.4303257136    -0.1246838666    -2.2074911330
   25      H       5.1359953631     1.5584163682    -0.7406783133
   26      H       4.2318556581    -2.6047539381    -0.8422706537
   27      H       6.7643935006    -2.6299674134    -0.9975615239
   28      H       6.3378819479    -1.4486149741    -2.2740547294
   29      H       7.7573462349    -0.8844380926     0.2850555753
   30      H       7.2395655003     0.3466625441    -0.9070047334
   31      H       5.9634356795     0.2635308234     1.6162323876
   32      O      -1.9923569881     1.4728705133    -1.2722685366
   33      C      -2.2925676897    -2.7196446392     2.2729839525
   34      C      -5.6352455045    -0.6087733906    -0.7493655476
   35      C      -6.9266929891     0.2621922187    -0.4959166921
   36      C      -6.3558191708     1.7123608885    -0.7213155913
   37      C      -4.8672091783     1.3978266364    -1.1444078802
   38      O      -4.9621166719     0.1026145247    -1.8596378826
   39      H      -5.2351686350    -0.3252482071     1.4357407862
   40      H      -4.1536437521     1.7249113178     0.9728803704
   41      H      -1.3836554468    -2.5751853163     1.6545111680
   42      H      -5.8128485687    -1.6676041873    -1.0200269198
   43      H      -7.7049482261     0.0167904246    -1.2361239164
   44      H      -7.3398314450     0.1159669298     0.5147302697
   45      H      -6.8863606433     2.2355186785    -1.5325786300
   46      H      -6.4032109402     2.3319994038     0.1884993563
   47      H      -4.3742060438     2.1550834495    -1.7843914151
   48      H      -2.7229422671    -3.7142281590     2.0349691520
   49      H      -2.0216041674    -2.6809946204     3.3440455792
   50      H       2.3471683569     4.4358439431     0.9678803692
   51      H       2.7736921651     3.3551090622     2.3569538822
   52      H       1.4189217615     2.9136814225     1.2593279716
   53      H       0.0885691248    -0.7710973644    -1.1121166156
   54      H       0.0076021966     1.0197055858    -1.3228457645
   55      H       0.0188836001    -0.4361829999     1.4382669755
   56      H       0.0276182742     1.3415665682     1.1959236828
 ----------------------------------------------------------------

    8   -1510.2735077347      5.82E-09 Convergence criterion met
 Total energy in the final basis set = -1510.27350773
 Final energy is   -1510.27350773466
 **  OPTIMIZATION CONVERGED  **

                    Orbital Energies (a.u.)
 --------------------------------------------------------------

 Alpha MOs
 -- Occupied --
-18.945 -18.939 -18.929 -18.927 -18.888 -18.887 -18.885 -18.875
-18.869 -18.865 -10.110 -10.103 -10.095 -10.095 -10.079 -10.066
-10.062 -10.060 -10.060 -10.059 -10.058 -10.057 -10.040 -10.040
-10.035 -10.035 -10.020 -10.020 -10.019 -10.019  -1.020  -1.015
 -1.005  -1.002  -0.971  -0.968  -0.948  -0.939  -0.931  -0.928
 -0.764  -0.762  -0.729  -0.722  -0.710  -0.705  -0.699  -0.662
 -0.660  -0.619  -0.597  -0.589  -0.545  -0.544  -0.538  -0.537
 -0.514  -0.510  -0.487  -0.471  -0.460  -0.457  -0.456  -0.443
 -0.441  -0.430  -0.429  -0.411  -0.410  -0.408  -0.407  -0.401
 -0.391  -0.383  -0.378  -0.368  -0.367  -0.355  -0.352  -0.347
 -0.346  -0.338  -0.334  -0.332  -0.330  -0.329  -0.326  -0.313
 -0.310  -0.307  -0.305  -0.299  -0.296  -0.291  -0.285  -0.275
 -0.272  -0.252  -0.250  -0.249  -0.239  -0.234  -0.233  -0.188
 -0.180  -0.172  -0.169  -0.158  -0.156  -0.147  -0.146  -0.143
 -0.143

          Ground-State Mulliken Net Atomic Charges

     Atom                 Charge (a.u.)
  ----------------------------------------
      1 O                    -0.215171
      2 C                     0.210110
      3 C                    -0.080166
      4 C                    -0.076201
      5 C                     0.215268
      6 O                    -0.169305
      7 C                    -0.046890
      8 C                    -0.060772
      9 O                    -0.171809
     10 C                     0.211073
     11 C                    -0.078951
     12 C                    -0.080134
     13 C                     0.217679
     14 O                    -0.216285
     15 O                    -0.167974
     16 O                    -0.172386
     17 O                    -0.213653
     18 C                    -0.127424
     19 C                     0.025739
     20 C                    -0.142770
     21 C                    -0.145194
     22 C                     0.026064
     23 O                    -0.186696
     24 H                     0.086487
     25 H                     0.085311
     26 H                     0.086604
     27 H                     0.078545
     28 H                     0.074509
     29 H                     0.078068
     30 H                     0.073590
     31 H                     0.083827
     32 O                    -0.208621
     33 C                    -0.127594
     34 C                     0.024689
     35 C                    -0.143101
     36 C                    -0.144938
     37 C                     0.023500
     38 O                    -0.187931
     39 H                     0.085159
     40 H                     0.085760
     41 H                     0.087465
     42 H                     0.087159
     43 H                     0.078183
     44 H                     0.073105
     45 H                     0.078382
     46 H                     0.072627
     47 H                     0.089799
     48 H                     0.087440
     49 H                     0.089647
     50 H                     0.088838
     51 H                     0.088554
     52 H                     0.080988
     53 H                     0.101069
     54 H                     0.107997
     55 H                     0.096420
     56 H                     0.084310
  ----------------------------------------
  Sum of atomic charges =     0.000000

                    Cartesian Multipole Moments
 -----------------------------------------------------------------
    Charge (ESU x 10^10)
                 0.0000
    Dipole Moment (Debye)
         X       0.1679      Y       2.1427      Z       1.6672
       Tot       2.7201
    Quadrupole Moments (Debye-Ang)
        XX    -135.6621     XY      -1.2975     YY    -155.9271
        XZ     -12.6445     YZ      -0.7101     ZZ    -167.8349

 Total job time:  62.34s(wall), 2959.87s(cpu)
        *  Thank you very much for using Q-Chem.  Have a nice day.  *
