 Q-Chem 5.0, Q-Chem, Inc., Pleasanton, CA (2017)
 Q-Chem 5.0.1 for Intel X86 EM64T Linux

User input:
--------------------------------------------------------------
$molecule
0  1
O -3.2416626717 -2.3829494776 -0.1909002702
C -3.6314835228 -1.5665946893 0.6715292501
C -4.6650903966 -0.4014261254 0.4924990326
C -4.026371422 1.0104406914 0.1389028936
C -2.498725894 0.9665650155 -0.2474118635
O -1.8050319563 0.3413132627 0.8314450177
C -0.3206206755 0.3766324299 0.7640162858
C 0.3449449731 0.2053855364 -0.6488589524
O 1.8072143684 0.2852488556 -0.4099288941
C 2.5233971883 -0.5476223552 -1.3207123997
C 4.0741502893 -0.3504483399 -1.1850579638
C 4.6482283427 0.7396611583 -0.1832015713
C 3.6342056628 1.3817004996 0.8322933381
O 3.1565248834 0.882665773 1.872725416
O -3.2762525021 -1.6343189062 2.058943457
O 3.3739687956 2.7232549756 0.3881094449
O 1.975544216 -1.3387323287 -2.1205978804
C 2.4218287392 3.3857254264 1.3055686987
C 4.7980083915 -1.6708893181 -0.657471237
C 6.2814264954 -1.6593855014 -1.1942457559
C 6.9066203771 -0.5176282215 -0.3104907088
C 5.688325113 -0.1504062011 0.627010272
O 4.9614862488 -1.4307984865 0.7922952829
H 4.4303257136 -0.1246838666 -2.207491133
H 5.1359953631 1.5584163682 -0.7406783133
H 4.2318556581 -2.6047539381 -0.8422706537
H 6.7643935006 -2.6299674134 -0.9975615239
H 6.3378819479 -1.4486149741 -2.2740547294
H 7.7573462349 -0.8844380926 0.2850555753
H 7.2395655003 0.3466625441 -0.9070047334
H 5.9634356795 0.2635308234 1.6162323876
O -1.9923569881 1.4728705133 -1.2722685366
C -2.2925676897 -2.7196446392 2.2729839525
C -5.6352455045 -0.6087733906 -0.7493655476
C -6.9266929891 0.2621922187 -0.4959166921
C -6.3558191708 1.7123608885 -0.7213155913
C -4.8672091783 1.3978266364 -1.1444078802
O -4.9621166719 0.1026145247 -1.8596378826
H -5.235168635 -0.3252482071 1.4357407862
H -4.1536437521 1.7249113178 0.9728803704
H -1.3836554468 -2.5751853163 1.654511168
H -5.8128485687 -1.6676041873 -1.0200269198
H -7.7049482261 0.0167904246 -1.2361239164
H -7.339831445 0.1159669298 0.5147302697
H -6.8863606433 2.2355186785 -1.53257863
H -6.4032109402 2.3319994038 0.1884993563
H -4.3742060438 2.1550834495 -1.7843914151
H -2.7229422671 -3.714228159 2.034969152
H -2.0216041674 -2.6809946204 3.3440455792
H 2.3471683569 4.4358439431 0.9678803692
H 2.7736921651 3.3551090622 2.3569538822
H 1.4189217615 2.9136814225 1.2593279716
H 0.0885691248 -0.7710973644 -1.1121166156
H 0.0076021966 1.0197055858 -1.3228457645
H 0.0188836001 -0.4361829999 1.4382669755
H 0.0276182742 1.3415665682 1.1959236828
$end

$rem
JOBTYPE                   OPT
METHOD                    B3LYP
DFT_D                     d3_op
BASIS                     STO-3G
GEOM_OPT_MAX_CYCLES       100
GEOM_OPT_TOL_GRADIENT     300
GEOM_OPT_TOL_DISPLACEMENT 1200
GEOM_OPT_TOL_ENERGY       100
SYMMETRY                  False
THRESH                    12
SCF_CONVERGENCE           8
MAX_SUB_FILE_NUM          128
MEM_STATIC                400
MEM_TOTAL                 4000
$end
--------------------------------------------------------------

   16   -1510.2735385093      5.23E-09 Convergence criterion met
 Total energy in the final basis set = -1510.27353851
   14   -1510.2765216090      8.56E-09 Convergence criterion met
 Total energy in the final basis set = -1510.27652161
   14   -1510.2794015489      3.52E-09 Convergence criterion met
 Total energy in the final basis set = -1510.27940155
   14   -1510.2819744667      6.07E-09 Convergence criterion met
 Total energy in the final basis set = -1510.28197447
   14   -1510.2835327511      7.64E-09 Convergence criterion met
 Total energy in the final basis set = -1510.28353275
   14   -1510.2850032683      5.16E-09 Convergence criterion met
 Total energy in the final basis set = -1510.28500327
   14   -1510.2858557562      3.14E-09 Convergence criterion met
 Total energy in the final basis set = -1510.28585576
   13   -1510.2865305535      9.12E-09 Convergence criterion met
   12   -1510.2984635664      6.83E-09 Convergence criterion met
 Total energy in the final basis set = -1510.29846357
   11   -1510.2984551545      5.81E-09 Convergence criterion met
 Total energy in the final basis set = -1510.29845515
   10   -1510.2984660995      6.41E-09 Convergence criterion met
 Total energy in the final basis set = -1510.29846610
    9   -1510.2984618272      4.68E-09 Convergence criterion met
 Total energy in the final basis set = -1510.29846183
    9   -1510.2984606729      4.22E-09 Convergence criterion met
 Total energy in the final basis set = -1510.29846067
    9   -1510.2984589761      3.88E-09 Convergence criterion met
 Total energy in the final basis set = -1510.29845898

             Standard Nuclear Orientation (Angstroms)
    I     Atom           X                Y                Z
 ----------------------------------------------------------------
    1      O       1.9263202353     1.2816702877    -0.5421080183
    2      C       2.4977518204     0.9173392604     0.5121536325
    3      C       3.9465795209     0.3244001768     0.6443371310
    4      C       4.0858764296    -1.1618011577     0.0961308237
    5      C       2.7703831624    -1.7319579483    -0.5447503127
    6      O       1.6883291175    -1.4713991159     0.3547348243
    7      C       0.3811130370    -1.7912865146    -0.2699495002
    8      C       0.0642689155    -0.8364930095    -1.4870307219
    9      O      -1.4056518018    -0.6824616343    -1.6141138769
   10      C      -1.8485671916     0.5492685838    -1.0391206454
   11      C      -3.4191592882     0.5809274491    -1.1214223928
   12      C      -4.1457564693    -0.3695961792    -0.0830458349
   13      C      -3.1581525121    -1.0881669265     0.8922053476
   14      O      -1.9894125359    -0.7376872476     1.1812879743
   15      O       1.9475580934     1.0093097741     1.8239380084
   16      O      -3.8127144569    -2.2221584437     1.4573769598
   17      O      -1.1042151697     1.4765535063    -0.6487813966
   18      C      -2.9096744424    -2.9107925306     2.4111319501
   19      C      -3.9885294883     1.9963048653    -0.6911611784
   20      C      -5.4720484827     2.1192669621    -1.2138824166
   21      C      -6.2210860104     1.1492452717    -0.2260034021
   22      C      -5.0344465041     0.6886451569     0.7102893046
   23      O      -4.1522000332     1.8729936747     0.7776507143
   24      H      -3.7121757687     0.3157880164    -2.1533571410
   25      H      -4.7701885688    -1.1334395731    -0.5789363247
   26      H      -3.3160601488     2.8423485083    -0.9317497461
   27      H      -5.8308799266     3.1555505621    -1.1097691889
   28      H      -5.5709077781     1.8148592516    -2.2681166281
   29      H      -6.9881832924     1.6793676516     0.3605686673
   30      H      -6.6956325788     0.2985025841    -0.7407051716
   31      H      -5.3344659103     0.3629768335     1.7255290572
   32      O       2.6526083970    -2.3148385853    -1.6434789345
   33      C       0.5476239645     1.5018287228     1.8007393639
   34      C       4.9851734540     1.0766123832    -0.2946316070
   35      C       6.4430875064     0.7285859970     0.2041058566
   36      C       6.5925680174    -0.7530579961    -0.3075475867
   37      C       5.1982746857    -0.9738454107    -1.0142039458
   38      O       4.8783242281     0.3561133533    -1.5832409816
   39      H       4.2393396490     0.3791993495     1.7071659731
   40      H       4.4117459167    -1.8469099743     0.9006679638
   41      H       0.1124776181     1.4888900007     0.7746658769
   42      H       4.7770039027     2.1546174688    -0.4377076670
   43      H       7.1813478498     1.3953916471    -0.2689997347
   44      H       6.5394042804     0.8134781674     1.2983158071
   45      H       7.4132966408    -0.8481189161    -1.0362221512
   46      H       6.7619043604    -1.4720635011     0.5099354146
   47      H       5.1723014167    -1.7483500784    -1.8057926070
   48      H       0.5199554935     2.5356730861     2.1995903057
   49      H      -0.0456895003     0.8433424696     2.4636127321
   50      H      -3.5083602745    -3.7204102085     2.8670506409
   51      H      -2.5480440790    -2.2213494531     3.2007220725
   52      H      -2.0313338081    -3.3469907620     1.8927764706
   53      H       0.5582003011     0.1488250418    -1.3006146236
   54      H       0.4308046598    -1.2733984014    -2.4362960714
   55      H      -0.3783495905    -1.5978316411     0.5213803172
   56      H       0.3421994561    -2.8566608404    -0.5815501984
 ----------------------------------------------------------------

    8   -1510.2984582691      7.37E-09 Convergence criterion met
 Total energy in the final basis set = -1510.29845827
 Final energy is   -1510.29845826910
 **  OPTIMIZATION CONVERGED  **

                    Orbital Energies (a.u.)
 --------------------------------------------------------------

 Alpha MOs
 -- Occupied --
-18.952 -18.930 -18.925 -18.917 -18.892 -18.891 -18.881 -18.874
-18.874 -18.856 -10.114 -10.100 -10.096 -10.088 -10.076 -10.066
-10.060 -10.055 -10.053 -10.052 -10.047 -10.045 -10.038 -10.033
-10.028 -10.028 -10.024 -10.022 -10.015 -10.014  -1.027  -1.010
 -1.004  -0.992  -0.974  -0.964  -0.950  -0.935  -0.931  -0.919
 -0.767  -0.756  -0.728  -0.719  -0.711  -0.699  -0.688  -0.673
 -0.642  -0.613  -0.594  -0.578  -0.549  -0.540  -0.536  -0.531
 -0.517  -0.502  -0.481  -0.469  -0.461  -0.458  -0.447  -0.445
 -0.435  -0.432  -0.423  -0.423  -0.419  -0.406  -0.395  -0.390
 -0.386  -0.380  -0.371  -0.364  -0.359  -0.356  -0.353  -0.351
 -0.342  -0.337  -0.333  -0.329  -0.328  -0.323  -0.315  -0.312
 -0.307  -0.306  -0.299  -0.298  -0.288  -0.282  -0.279  -0.276
 -0.267  -0.263  -0.254  -0.239  -0.238  -0.228  -0.224  -0.192
 -0.183  -0.169  -0.161  -0.156  -0.152  -0.151  -0.148  -0.139
 -0.136

          Ground-State Mulliken Net Atomic Charges

     Atom                 Charge (a.u.)
  ----------------------------------------
      1 O                    -0.224276
      2 C                     0.217997
      3 C                    -0.079555
      4 C                    -0.078533
      5 C                     0.211517
      6 O                    -0.172329
      7 C                    -0.060892
      8 C                    -0.068713
      9 O                    -0.178386
     10 C                     0.221626
     11 C                    -0.079916
     12 C                    -0.078141
     13 C                     0.218123
     14 O                    -0.212913
     15 O                    -0.171010
     16 O                    -0.165143
     17 O                    -0.210413
     18 C                    -0.128728
     19 C                     0.024982
     20 C                    -0.143792
     21 C                    -0.143656
     22 C                     0.025691
     23 O                    -0.188385
     24 H                     0.086468
     25 H                     0.089111
     26 H                     0.091926
     27 H                     0.079205
     28 H                     0.074491
     29 H                     0.078970
     30 H                     0.074409
     31 H                     0.083346
     32 O                    -0.211878
     33 C                    -0.146465
     34 C                     0.025183
     35 C                    -0.143868
     36 C                    -0.144313
     37 C                     0.023749
     38 O                    -0.187997
     39 H                     0.084951
     40 H                     0.084102
     41 H                     0.119724
     42 H                     0.084300
     43 H                     0.077123
     44 H                     0.072992
     45 H                     0.077307
     46 H                     0.072175
     47 H                     0.089115
     48 H                     0.076512
     49 H                     0.083044
     50 H                     0.094332
     51 H                     0.093469
     52 H                     0.090515
     53 H                     0.117858
     54 H                     0.090636
     55 H                     0.103865
     56 H                     0.080488
  ----------------------------------------
  Sum of atomic charges =     0.000000

                    Cartesian Multipole Moments
 -----------------------------------------------------------------
    Charge (ESU x 10^10)
                -0.0000
    Dipole Moment (Debye)
         X      -2.2955      Y      -1.9978      Z       1.8297
       Tot       3.5509
    Quadrupole Moments (Debye-Ang)
        XX    -135.3735     XY       0.9139     YY    -157.7775
        XZ       9.2357     YZ      -6.0148     ZZ    -161.5570

 Total job time:  268.04s(wall), 12777.47s(cpu)
        *  Thank you very much for using Q-Chem.  Have a nice day.  *
