 Q-Chem 5.0, Q-Chem, Inc., Pleasanton, CA (2017)
 Q-Chem 5.0.1 for Intel X86 EM64T Linux

User input:
--------------------------------------------------------------
$molecule
0  1
O -3.4671491771 2.3169682227 0.8551560417
C -3.6793939087 1.7680469016 -0.2473228771
C -4.6276099775 0.556186778 -0.5501123576
C -3.9247309382 -0.8699701427 -0.5075179609
C -2.4403840438 -0.8767720585 0.0237315429
O -1.7039632634 0.0639269967 -0.7570489229
C -0.2235837834 -0.0388445769 -0.6830948255
C 0.427578897 -0.3808953983 0.7073533308
O 1.8894692662 -0.4147276318 0.4691421493
C 2.5993154633 0.434296503 1.3683148673
C 4.14714972 0.2960719467 1.1504705064
C 4.6738270795 -0.7866560704 0.1135670698
C 3.5971810113 -1.6903751389 -0.5932322638
O 3.1345129949 -1.5658507535 -1.7469229162
O -3.1638400075 2.2483859871 -1.4960475401
O 3.3048205347 -2.7907235623 0.2826668194
O 2.0460298008 1.1861685965 2.2013102899
C 2.2723334629 -3.656027917 -0.3288956337
C 4.7236723411 1.6309757431 0.4981328489
C 6.285957078 1.6685145964 0.7281965003
C 6.7769474591 0.6207446839 -0.3379407654
C 5.4014939929 0.1454523896 -0.9481202084
O 4.5816076878 1.3799345765 -0.952115799
H 4.5947084888 0.1290202938 2.1472306174
H 5.3907120968 -1.4595398983 0.6170963201
H 4.1801804541 2.5494099073 0.7945591502
H 6.681533872 2.6753409159 0.5203772969
H 6.5570521586 1.3873115424 1.7583154203
H 7.3983169826 1.0955967494 -1.1138654378
H 7.3441921459 -0.2110836025 0.1094555519
H 5.4478158451 -0.2861239557 -1.9667105725
O -1.9865282821 -1.6416452027 0.9021008348
C -2.2298976925 3.3712126679 -1.2552352381
C -5.757828994 0.361824142 0.5483710792
C -6.9181224237 -0.4910557637 -0.0990181127
C -6.2524734064 -1.9168806268 -0.1473758848
C -4.8549302272 -1.626641277 0.5267057361
O -5.1514403254 -0.5718680391 1.5247226115
H -5.0649506127 0.7258287267 -1.5501725422
H -3.9268922894 -1.341313662 -1.5078661798
H -1.3649720032 3.0537821506 -0.6380298719
H -6.0718117143 1.2965385298 1.051854019
H -7.8075245384 -0.4842745389 0.5509757343
H -7.2045159561 -0.1199175547 -1.0959187533
H -6.8225675005 -2.6507896439 0.4439071991
H -6.1437910034 -2.2999337344 -1.1748306924
H -4.3628292167 -2.4907547358 1.0144509785
H -2.7310876289 4.2200323207 -0.7461995968
H -1.8747118307 3.6933118198 -2.2513963935
H 2.1295195839 -4.5043230158 0.3655084257
H 2.5898216317 -4.0371303449 -1.3212035042
H 1.3112822284 -3.1161197798 -0.4526870285
H 0.2016580144 0.3926502566 1.4728813181
H 0.0792194795 -1.3707517184 1.0641834972
H 0.149133449 0.9467461922 -1.0307105922
H 0.1125078982 -0.8061840746 -1.4172849657
$end

$rem
JOBTYPE                   OPT
METHOD                    B3LYP
DFT_D                     d3_op
BASIS                     STO-3G
GEOM_OPT_MAX_CYCLES       100
GEOM_OPT_TOL_GRADIENT     300
GEOM_OPT_TOL_DISPLACEMENT 1200
GEOM_OPT_TOL_ENERGY       100
SYMMETRY                  False
THRESH                    12
SCF_CONVERGENCE           8
MAX_SUB_FILE_NUM          128
MEM_STATIC                400
MEM_TOTAL                 4000
$end
--------------------------------------------------------------

   16   -1510.2756617726      5.17E-09 Convergence criterion met
 Total energy in the final basis set = -1510.27566177
   14   -1510.2787549231      8.96E-09 Convergence criterion met
 Total energy in the final basis set = -1510.27875492
   14   -1510.2814970030      8.76E-09 Convergence criterion met
 Total energy in the final basis set = -1510.28149700
   14   -1510.2842862141      3.14E-09 Convergence criterion met
 Total energy in the final basis set = -1510.28428621
   14   -1510.2856539315      8.77E-09 Convergence criterion met
 Total energy in the final basis set = -1510.28565393
   14   -1510.2861487962      2.81E-09 Convergence criterion met
 Total energy in the final basis set = -1510.28614880
   13   -1510.2863052614      5.16E-09 Convergence criterion met
 Total energy in the final basis set = -1510.28630526
   14   -1510.2866598078      3.73E-09 Convergence criterion met
   13   -1510.3010066271      2.29E-09 Convergence criterion met
 Total energy in the final basis set = -1510.30100663
   12   -1510.3009690752      4.23E-09 Convergence criterion met
 Total energy in the final basis set = -1510.30096908
   12   -1510.3010383243      3.48E-09 Convergence criterion met
 Total energy in the final basis set = -1510.30103832
   11   -1510.3010531881      6.98E-09 Convergence criterion met
 Total energy in the final basis set = -1510.30105319
   10   -1510.3010575234      9.03E-09 Convergence criterion met
 Total energy in the final basis set = -1510.30105752
   11   -1510.3010573652      2.82E-09 Convergence criterion met
 Total energy in the final basis set = -1510.30105737

             Standard Nuclear Orientation (Angstroms)
    I     Atom           X                Y                Z
 ----------------------------------------------------------------
    1      O      -1.4837112637    -0.7101764135     0.6881183286
    2      C      -2.2983456309     0.2206206139     0.9099071575
    3      C      -3.7099103342     0.4006560750     0.2554722412
    4      C      -3.7969066090    -0.1016479840    -1.2463515178
    5      C      -2.4456386547    -0.6280627252    -1.8494331866
    6      O      -1.5645359624     0.4898035770    -2.0239553020
    7      C      -0.2595256612     0.0246645426    -2.5577301845
    8      C       0.5243544508    -0.8462110501    -1.4929002544
    9      O       1.8960271033    -0.3547003363    -1.2208714355
   10      C       1.8690714727     0.7917816023    -0.3704251526
   11      C       3.3440282453     1.1645409748    -0.0011377291
   12      C       4.0989847144    -0.0010136117     0.7698576626
   13      C       3.1998698293    -1.2650719437     1.0163047422
   14      O       3.4617367441    -2.4538814252     0.7375393090
   15      O      -2.1035490994     1.2671111276     1.8467026757
   16      O       1.9936843370    -0.8154812995     1.6442537091
   17      O       0.8238950086     1.3916338820    -0.0270607429
   18      C       1.0480345108    -1.9371028076     1.8681984710
   19      C       4.2652070295     1.3000227866    -1.2908760346
   20      C       5.6093781658     2.0147103268    -0.8655459215
   21      C       6.3508100396     0.8465050010    -0.1140938344
   22      C       5.2860887517    -0.3132806640    -0.2307719809
   23      O       4.6807379790    -0.0926012487    -1.5649758546
   24      H       3.3223988455     2.0967946833     0.5893396669
   25      H       4.4718581211     0.3560801480     1.7477312943
   26      H       3.7580729481     1.7345236761    -2.1742316516
   27      H       6.1692052613     2.3419237414    -1.7559909637
   28      H       5.4270516749     2.8889468845    -0.2203686553
   29      H       7.2842549815     0.5660879946    -0.6273712900
   30      H       6.5839738222     1.0947742145     0.9336466149
   31      H       5.6791119122    -1.3456065544    -0.1512718588
   32      O      -2.1744044690    -1.7988229877    -2.1912689012
   33      C      -0.7414758551     1.2013363722     2.4383975288
   34      C      -4.7775067923    -0.5621471750     0.9441656254
   35      C      -6.2238733764    -0.0950931882     0.5099289475
   36      C      -6.2900577649    -0.6384351126    -0.9662496394
   37      C      -4.8549042284    -1.2749955644    -1.1171856490
   38      O      -4.5856565695    -1.8400358180     0.2265358261
   39      H      -4.0002812159     1.4611729925     0.3520828540
   40      H      -4.1662776516     0.7119502025    -1.8968556472
   41      H       0.0261534863     1.2724713546     1.6310428249
   42      H      -4.6349467028    -0.6997415894     2.0338625539
   43      H      -6.9878518700    -0.5645245329     1.1497670933
   44      H      -6.3389713519     0.9991996962     0.5664123416
   45      H      -7.0675750813    -1.4111416820    -1.0763603222
   46      H      -6.4742765516     0.1560776625    -1.7068619699
   47      H      -4.7497965779    -2.0602859087    -1.8906877834
   48      H      -0.5978156721     0.2684671442     3.0185990244
   49      H      -0.6706535831     2.0714145030     3.1157575597
   50      H       0.0415005966    -1.5861359975     1.5498723656
   51      H       1.0375230200    -2.2003265363     2.9449276228
   52      H       1.3632858227    -2.8219571558     1.2815010993
   53      H      -0.0866274818    -0.8583957755    -0.5603943144
   54      H       0.6578449057    -1.8803201141    -1.8638509846
   55      H       0.3063064929     0.9489039985    -2.7911662865
   56      H      -0.4068221631    -0.5545978807    -3.4941051958
 ----------------------------------------------------------------

    9   -1510.3010578477      5.02E-09 Convergence criterion met
 Total energy in the final basis set = -1510.30105785
 Final energy is   -1510.30105784775
 **  OPTIMIZATION CONVERGED  **

                    Orbital Energies (a.u.)
 --------------------------------------------------------------

 Alpha MOs
 -- Occupied --
-18.943 -18.932 -18.927 -18.926 -18.889 -18.887 -18.883 -18.874
-18.873 -18.871 -10.110 -10.102 -10.096 -10.096 -10.066 -10.063
-10.061 -10.058 -10.057 -10.053 -10.049 -10.041 -10.040 -10.037
-10.037 -10.036 -10.022 -10.020 -10.020 -10.019  -1.018  -1.014
 -1.006  -1.001  -0.971  -0.969  -0.941  -0.936  -0.932  -0.931
 -0.764  -0.762  -0.726  -0.723  -0.710  -0.705  -0.690  -0.660
 -0.651  -0.615  -0.596  -0.582  -0.545  -0.545  -0.537  -0.536
 -0.514  -0.509  -0.478  -0.470  -0.463  -0.460  -0.454  -0.438
 -0.434  -0.430  -0.430  -0.419  -0.412  -0.406  -0.404  -0.398
 -0.383  -0.375  -0.368  -0.365  -0.364  -0.360  -0.353  -0.348
 -0.342  -0.339  -0.332  -0.331  -0.329  -0.325  -0.321  -0.311
 -0.308  -0.305  -0.304  -0.303  -0.291  -0.287  -0.281  -0.279
 -0.270  -0.258  -0.249  -0.243  -0.236  -0.235  -0.233  -0.191
 -0.178  -0.171  -0.161  -0.159  -0.156  -0.150  -0.148  -0.145
 -0.142

          Ground-State Mulliken Net Atomic Charges

     Atom                 Charge (a.u.)
  ----------------------------------------
      1 O                    -0.220921
      2 C                     0.225625
      3 C                    -0.077746
      4 C                    -0.079546
      5 C                     0.211482
      6 O                    -0.173157
      7 C                    -0.049935
      8 C                    -0.064062
      9 O                    -0.168900
     10 C                     0.218625
     11 C                    -0.079222
     12 C                    -0.077785
     13 C                     0.214429
     14 O                    -0.210803
     15 O                    -0.163841
     16 O                    -0.179391
     17 O                    -0.222035
     18 C                    -0.148772
     19 C                     0.026268
     20 C                    -0.143977
     21 C                    -0.143992
     22 C                     0.024671
     23 O                    -0.184981
     24 H                     0.083648
     25 H                     0.083801
     26 H                     0.081618
     27 H                     0.077894
     28 H                     0.073121
     29 H                     0.078222
     30 H                     0.072854
     31 H                     0.090941
     32 O                    -0.212263
     33 C                    -0.142067
     34 C                     0.025679
     35 C                    -0.143707
     36 C                    -0.143949
     37 C                     0.024948
     38 O                    -0.187337
     39 H                     0.088964
     40 H                     0.085058
     41 H                     0.117007
     42 H                     0.082716
     43 H                     0.078460
     44 H                     0.074292
     45 H                     0.078497
     46 H                     0.073565
     47 H                     0.090511
     48 H                     0.082784
     49 H                     0.086142
     50 H                     0.108840
     51 H                     0.076616
     52 H                     0.096071
     53 H                     0.113357
     54 H                     0.094385
     55 H                     0.089330
     56 H                     0.087968
  ----------------------------------------
  Sum of atomic charges =    -0.000000

                    Cartesian Multipole Moments
 -----------------------------------------------------------------
    Charge (ESU x 10^10)
                -0.0000
    Dipole Moment (Debye)
         X      -0.6036      Y       3.3663      Z       1.0560
       Tot       3.5793
    Quadrupole Moments (Debye-Ang)
        XX    -142.1439     XY       4.5349     YY    -168.3058
        XZ       5.6948     YZ      -3.1551     ZZ    -154.1155

 Total job time:  148.58s(wall), 7080.78s(cpu)
        *  Thank you very much for using Q-Chem.  Have a nice day.  *
