 Q-Chem 5.0, Q-Chem, Inc., Pleasanton, CA (2017)
 Q-Chem 5.0.1 for Intel X86 EM64T Linux

User input:
--------------------------------------------------------------
$molecule
0  1
O -3.94934 -3.66094 2.70899
C -3.26408 -4.56952 2.26188
C -3.36658 -6.02376 2.66595
C -2.44047 -6.50644 3.79431
C -1.64206 -5.44176 4.5134
O -0.93232 -4.70409 3.60922
C 0.11112 -3.92947 4.20962
C -0.35445 -3.36972 5.54979
O 0.69608 -2.59398 6.14769
C 0.35546 -1.33226 6.50991
C 1.47242 -0.60097 7.2158
C 2.72567 -1.44455 7.49155
C 2.82546 -2.74915 6.72687
O 3.5053 -2.93501 5.72795
O -2.2954 -4.27178 1.35556
O 2.43619 -3.8439 7.44398
O -0.70779 -0.78639 6.24244
C 2.68307 -5.1526 7.08402
C 2.05936 0.56542 6.40419
C 2.71 1.5687 7.35408
C 3.92176 0.78062 7.80865
C 3.78405 -0.468 6.928
O 3.17278 0.00876 5.75285
H 1.03527 -0.21872 8.16591
H 2.90379 -1.65265 8.57024
H 1.31239 1.07195 5.75478
H 3.05537 2.42642 6.7332
H 2.05761 1.94724 8.17018
H 4.83468 1.35619 7.5378
H 3.94164 0.51808 8.88854
H 4.77681 -0.95328 6.79813
O -2.14018 -5.06513 5.56678
C -2.02981 -3.00043 0.89157
C -4.74162 -6.36079 3.29335
C -5.04237 -7.8487 3.11994
C -4.05167 -8.4498 4.09275
C -3.47967 -7.17484 4.72369
O -4.54552 -6.2602 4.68153
H -3.28638 -6.61963 1.72873
H -1.69574 -7.24762 3.42915
H -1.73535 -2.33952 1.73491
H -5.57747 -5.75873 2.87376
H -6.07101 -8.01699 3.51288
H -4.98293 -8.23653 2.08031
H -4.6151 -9.04753 4.84329
H -3.2515 -9.06994 3.63375
H -3.06338 -7.40105 5.73017
H -2.92493 -2.58407 0.38201
H -1.19295 -3.04595 0.16496
H 2.25094 -5.82739 7.85092
H 3.77772 -5.33228 7.0261
H 2.21616 -5.38254 6.10652
H -1.31906 -2.82544 5.42769
H -0.39273 -4.16511 6.31888
H 0.35935 -3.09369 3.52216
H 1.01967 -4.55135 4.34031
$end

$opt
CONSTRAINT
tors           1           2           3           4     -93.007
tors           3           4           5           6     -54.082
tors           4           5           6           7    -164.032
tors           5           6           7           8     -38.260
tors           6           7           8           9    +179.985
tors           7           8           9          10    +126.619
tors           8           9          10          11    +176.104
tors           9          10          11          12      -4.744
tors          11          12          13          14    +100.833
ENDCONSTRAINT
$end

$rem
JOBTYPE                   OPT
METHOD                    B3LYP
DFT_D                     d3_op
BASIS                     STO-3G
GEOM_OPT_MAX_CYCLES       100
GEOM_OPT_TOL_GRADIENT     300
GEOM_OPT_TOL_DISPLACEMENT 1200
GEOM_OPT_TOL_ENERGY       100
SYMMETRY                  False
THRESH                    12
SCF_CONVERGENCE           8
MAX_SUB_FILE_NUM          128
MEM_STATIC                400
MEM_TOTAL                 4000
$end
--------------------------------------------------------------

   15   -1510.1127522167      6.76E-09 Convergence criterion met
 Total energy in the final basis set = -1510.11275222
   14   -1510.1876568903      5.46E-09 Convergence criterion met
 Total energy in the final basis set = -1510.18765689
   14   -1510.2298726160      2.11E-09 Convergence criterion met
 Total energy in the final basis set = -1510.22987262
   14   -1510.2530208362      2.05E-09 Convergence criterion met
 Total energy in the final basis set = -1510.25302084
   14   -1510.2635035863      4.64E-09 Convergence criterion met
 Total energy in the final basis set = -1510.26350359
   13   -1510.2686040138      5.88E-09 Convergence criterion met
 Total energy in the final basis set = -1510.26860401
   14   -1510.2721550803      4.51E-09 Convergence criterion met
 Total energy in the final basis set = -1510.27215508
   13   -1510.2740403454      4.31E-09 Convergence criterion met
   11   -1510.2756377351      6.77E-09 Convergence criterion met
 Total energy in the final basis set = -1510.27563774
   11   -1510.2756620462      5.60E-09 Convergence criterion met
 Total energy in the final basis set = -1510.27566205
   11   -1510.2756747549      3.39E-09 Convergence criterion met
 Total energy in the final basis set = -1510.27567475
   11   -1510.2756825824      3.93E-09 Convergence criterion met
 Total energy in the final basis set = -1510.27568258
    9   -1510.2756857482      7.94E-09 Convergence criterion met
 Total energy in the final basis set = -1510.27568575
    9   -1510.2756871541      6.88E-09 Convergence criterion met
 Total energy in the final basis set = -1510.27568715

             Standard Nuclear Orientation (Angstroms)
    I     Atom           X                Y                Z
 ----------------------------------------------------------------
    1      O      -3.4671491771     2.3169682227     0.8551560417
    2      C      -3.6793939087     1.7680469016    -0.2473228771
    3      C      -4.6276099775     0.5561867780    -0.5501123576
    4      C      -3.9247309382    -0.8699701427    -0.5075179609
    5      C      -2.4403840438    -0.8767720585     0.0237315429
    6      O      -1.7039632634     0.0639269967    -0.7570489229
    7      C      -0.2235837834    -0.0388445769    -0.6830948255
    8      C       0.4275788970    -0.3808953983     0.7073533308
    9      O       1.8894692662    -0.4147276318     0.4691421493
   10      C       2.5993154633     0.4342965030     1.3683148673
   11      C       4.1471497200     0.2960719467     1.1504705064
   12      C       4.6738270795    -0.7866560704     0.1135670698
   13      C       3.5971810113    -1.6903751389    -0.5932322638
   14      O       3.1345129949    -1.5658507535    -1.7469229162
   15      O      -3.1638400075     2.2483859871    -1.4960475401
   16      O       3.3048205347    -2.7907235623     0.2826668194
   17      O       2.0460298008     1.1861685965     2.2013102899
   18      C       2.2723334629    -3.6560279170    -0.3288956337
   19      C       4.7236723411     1.6309757431     0.4981328489
   20      C       6.2859570780     1.6685145964     0.7281965003
   21      C       6.7769474591     0.6207446839    -0.3379407654
   22      C       5.4014939929     0.1454523896    -0.9481202084
   23      O       4.5816076878     1.3799345765    -0.9521157990
   24      H       4.5947084888     0.1290202938     2.1472306174
   25      H       5.3907120968    -1.4595398983     0.6170963201
   26      H       4.1801804541     2.5494099073     0.7945591502
   27      H       6.6815338720     2.6753409159     0.5203772969
   28      H       6.5570521586     1.3873115424     1.7583154203
   29      H       7.3983169826     1.0955967494    -1.1138654378
   30      H       7.3441921459    -0.2110836025     0.1094555519
   31      H       5.4478158451    -0.2861239557    -1.9667105725
   32      O      -1.9865282821    -1.6416452027     0.9021008348
   33      C      -2.2298976925     3.3712126679    -1.2552352381
   34      C      -5.7578289940     0.3618241420     0.5483710792
   35      C      -6.9181224237    -0.4910557637    -0.0990181127
   36      C      -6.2524734064    -1.9168806268    -0.1473758848
   37      C      -4.8549302272    -1.6266412770     0.5267057361
   38      O      -5.1514403254    -0.5718680391     1.5247226115
   39      H      -5.0649506127     0.7258287267    -1.5501725422
   40      H      -3.9268922894    -1.3413136620    -1.5078661798
   41      H      -1.3649720032     3.0537821506    -0.6380298719
   42      H      -6.0718117143     1.2965385298     1.0518540190
   43      H      -7.8075245384    -0.4842745389     0.5509757343
   44      H      -7.2045159561    -0.1199175547    -1.0959187533
   45      H      -6.8225675005    -2.6507896439     0.4439071991
   46      H      -6.1437910034    -2.2999337344    -1.1748306924
   47      H      -4.3628292167    -2.4907547358     1.0144509785
   48      H      -2.7310876289     4.2200323207    -0.7461995968
   49      H      -1.8747118307     3.6933118198    -2.2513963935
   50      H       2.1295195839    -4.5043230158     0.3655084257
   51      H       2.5898216317    -4.0371303449    -1.3212035042
   52      H       1.3112822284    -3.1161197798    -0.4526870285
   53      H       0.2016580144     0.3926502566     1.4728813181
   54      H       0.0792194795    -1.3707517184     1.0641834972
   55      H       0.1491334490     0.9467461922    -1.0307105922
   56      H       0.1125078982    -0.8061840746    -1.4172849657
 ----------------------------------------------------------------

    9   -1510.2756877252      3.42E-09 Convergence criterion met
 Total energy in the final basis set = -1510.27568773
 Final energy is   -1510.27568772519
 **  OPTIMIZATION CONVERGED  **

                    Orbital Energies (a.u.)
 --------------------------------------------------------------

 Alpha MOs
 -- Occupied --
-18.943 -18.943 -18.928 -18.924 -18.888 -18.886 -18.885 -18.880
-18.869 -18.862 -10.110 -10.107 -10.096 -10.095 -10.078 -10.068
-10.062 -10.060 -10.060 -10.058 -10.057 -10.057 -10.042 -10.040
-10.035 -10.035 -10.021 -10.020 -10.020 -10.018  -1.021  -1.017
 -1.004  -1.001  -0.971  -0.968  -0.948  -0.942  -0.930  -0.928
 -0.764  -0.762  -0.730  -0.722  -0.710  -0.705  -0.699  -0.659
 -0.659  -0.620  -0.597  -0.589  -0.545  -0.544  -0.538  -0.537
 -0.513  -0.509  -0.489  -0.473  -0.460  -0.458  -0.457  -0.443
 -0.440  -0.430  -0.429  -0.411  -0.409  -0.408  -0.406  -0.401
 -0.396  -0.383  -0.377  -0.368  -0.367  -0.355  -0.352  -0.346
 -0.345  -0.339  -0.336  -0.334  -0.331  -0.329  -0.325  -0.313
 -0.311  -0.307  -0.305  -0.302  -0.298  -0.294  -0.285  -0.275
 -0.272  -0.252  -0.249  -0.248  -0.237  -0.235  -0.233  -0.190
 -0.180  -0.171  -0.168  -0.162  -0.158  -0.146  -0.146  -0.144
 -0.143

          Ground-State Mulliken Net Atomic Charges

     Atom                 Charge (a.u.)
  ----------------------------------------
      1 O                    -0.214138
      2 C                     0.210382
      3 C                    -0.079768
      4 C                    -0.076362
      5 C                     0.215016
      6 O                    -0.169980
      7 C                    -0.048896
      8 C                    -0.060107
      9 O                    -0.171116
     10 C                     0.213841
     11 C                    -0.077606
     12 C                    -0.081017
     13 C                     0.220765
     14 O                    -0.221756
     15 O                    -0.167534
     16 O                    -0.174198
     17 O                    -0.213337
     18 C                    -0.127862
     19 C                     0.025087
     20 C                    -0.143880
     21 C                    -0.144077
     22 C                     0.024928
     23 O                    -0.189780
     24 H                     0.087631
     25 H                     0.084283
     26 H                     0.085284
     27 H                     0.078516
     28 H                     0.074211
     29 H                     0.078111
     30 H                     0.073554
     31 H                     0.088066
     32 O                    -0.209840
     33 C                    -0.127559
     34 C                     0.024765
     35 C                    -0.143407
     36 C                    -0.144755
     37 C                     0.023347
     38 O                    -0.187906
     39 H                     0.085270
     40 H                     0.085526
     41 H                     0.086880
     42 H                     0.086853
     43 H                     0.078080
     44 H                     0.073106
     45 H                     0.078267
     46 H                     0.072564
     47 H                     0.089517
     48 H                     0.088255
     49 H                     0.089284
     50 H                     0.088642
     51 H                     0.087198
     52 H                     0.083874
     53 H                     0.103435
     54 H                     0.106995
     55 H                     0.093471
     56 H                     0.089875
  ----------------------------------------
  Sum of atomic charges =     0.000000

                    Cartesian Multipole Moments
 -----------------------------------------------------------------
    Charge (ESU x 10^10)
                 0.0000
    Dipole Moment (Debye)
         X       0.6775      Y      -1.1130      Z      -1.7717
       Tot       2.1993
    Quadrupole Moments (Debye-Ang)
        XX    -137.0830     XY       1.9137     YY    -154.0625
        XZ      14.2652     YZ      -0.7986     ZZ    -170.3211

 Total job time:  58.68s(wall), 2791.37s(cpu)
        *  Thank you very much for using Q-Chem.  Have a nice day.  *
