 Q-Chem 5.0, Q-Chem, Inc., Pleasanton, CA (2017)
 Q-Chem 5.0.1 for Intel X86 EM64T Linux

User input:
--------------------------------------------------------------
$molecule
0  1
O -3.94934 -3.66094 2.70899
C -3.26408 -4.56952 2.26188
C -3.36658 -6.02376 2.66595
C -2.44047 -6.50644 3.79431
C -1.64206 -5.44176 4.5134
O -1.07614 -4.59333 3.60492
C -0.18921 -3.64056 4.20061
C -0.65122 -3.30495 5.61484
O 0.24387 -2.35158 6.20881
C -0.28145 -1.6045 7.21133
C 0.75383 -0.77154 7.92899
C 2.21103 -1.11152 7.58364
C 2.41608 -1.95657 6.34245
O 2.66669 -1.52674 5.22576
O -2.33989 -4.28213 1.3063
O 2.66701 -3.27162 6.60651
O -1.47843 -1.51979 7.45587
C 3.12553 -4.22037 5.71242
C 0.69386 0.72569 7.59279
C 1.31805 1.52823 8.7325
C 2.78043 1.16729 8.56371
C 2.71036 0.32146 7.28589
O 1.63898 0.88391 6.565
H 0.56984 -0.93059 9.01571
H 2.77962 -1.57031 8.42341
H -0.33488 1.0878 7.37642
H 1.18614 2.6056 8.48309
H 0.89479 1.3312 9.74096
H 3.35293 2.10416 8.38305
H 3.23175 0.60047 9.40659
H 3.69728 0.32331 6.77209
O -1.00483 -5.90405 5.45417
C -2.11604 -3.02015 0.79664
C -4.73862 -6.32654 3.3159
C -5.05807 -7.81666 3.20311
C -4.08146 -8.38867 4.20603
C -3.47795 -7.09791 4.76887
O -4.52649 -6.16638 4.69592
H -3.30947 -6.62984 1.73377
H -1.71294 -7.26266 3.42126
H -1.80168 -2.32917 1.60755
H -5.57227 -5.73359 2.87878
H -6.09082 -7.95974 3.59499
H -4.99403 -8.24305 2.17898
H -4.65862 -8.92605 4.99119
H -3.30095 -9.05727 3.78247
H -3.06578 -7.28581 5.78439
H -3.03831 -2.63428 0.31217
H -1.30832 -3.07219 0.03823
H 2.40302 -5.06095 5.67065
H 4.09834 -4.61434 6.07157
H 3.2672 -3.81232 4.68922
H -1.66045 -2.85307 5.46934
H -0.74956 -4.04591 6.42137
H -0.17078 -2.72041 3.57909
H 0.83154 -4.06503 4.21688
$end

$opt
CONSTRAINT
tors           1           2           3           4     -93.007
tors           3           4           5           6     -45.977
tors           4           5           6           7    -173.814
tors           5           6           7           8     -30.821
tors           6           7           8           9    +179.851
tors           7           8           9          10    +156.350
tors           8           9          10          11    +171.488
tors           9          10          11          12     -10.938
tors          11          12          13          14     +95.423
ENDCONSTRAINT
$end

$rem
JOBTYPE                   OPT
METHOD                    B3LYP
DFT_D                     d3_op
BASIS                     STO-3G
GEOM_OPT_MAX_CYCLES       100
GEOM_OPT_TOL_GRADIENT     300
GEOM_OPT_TOL_DISPLACEMENT 1200
GEOM_OPT_TOL_ENERGY       100
SYMMETRY                  False
THRESH                    12
SCF_CONVERGENCE           8
MAX_SUB_FILE_NUM          128
MEM_STATIC                400
MEM_TOTAL                 4000
$end
--------------------------------------------------------------

   15   -1510.1068748805      9.47E-09 Convergence criterion met
 Total energy in the final basis set = -1510.10687488
   15   -1510.1821453105      1.96E-09 Convergence criterion met
 Total energy in the final basis set = -1510.18214531
   15   -1510.2237517398      1.68E-09 Convergence criterion met
 Total energy in the final basis set = -1510.22375174
   15   -1510.2484971585      1.45E-09 Convergence criterion met
 Total energy in the final basis set = -1510.24849716
   14   -1510.2608746885      3.74E-09 Convergence criterion met
 Total energy in the final basis set = -1510.26087469
   13   -1510.2675366229      7.62E-09 Convergence criterion met
 Total energy in the final basis set = -1510.26753662
   13   -1510.2712886893      6.96E-09 Convergence criterion met
 Total energy in the final basis set = -1510.27128869
    2   -1510.2712886893      8.10E-09 Convergence criterion met
   12   -1510.2745007510      2.28E-09 Convergence criterion met
 Total energy in the final basis set = -1510.27450075
   11   -1510.2745283411      6.82E-09 Convergence criterion met
 Total energy in the final basis set = -1510.27452834
   11   -1510.2745399897      2.12E-09 Convergence criterion met
 Total energy in the final basis set = -1510.27453999
    9   -1510.2745455881      5.97E-09 Convergence criterion met
 Total energy in the final basis set = -1510.27454559
    9   -1510.2745493753      7.10E-09 Convergence criterion met
 Total energy in the final basis set = -1510.27454938
    9   -1510.2745508098      8.22E-09 Convergence criterion met
 Total energy in the final basis set = -1510.27455081

             Standard Nuclear Orientation (Angstroms)
    I     Atom           X                Y                Z
 ----------------------------------------------------------------
    1      O      -3.1616578801     2.2358579348     0.8345230285
    2      C      -3.5882727773     1.6929932103    -0.2070652975
    3      C      -4.6135644495     0.5102920714    -0.3247840664
    4      C      -3.9775681514    -0.9430552869    -0.4030673483
    5      C      -2.4411265218    -1.0294815910    -0.0610194278
    6      O      -1.7822379218     0.0242623731    -0.7586836375
    7      C      -0.2969128306     0.0482785585    -0.6937824350
    8      C       0.4047354953    -0.5092631468     0.5963514968
    9      O       1.8538376235    -0.3401874102     0.3281349503
   10      C       2.6113478116    -0.2753573297     1.5345885385
   11      C       4.1493948293    -0.3144034205     1.2228712023
   12      C       4.6210650110    -0.6764389228    -0.2505472117
   13      C       3.4996489504    -0.9145993363    -1.3258644200
   14      O       3.0369358488    -0.0894722107    -2.1431404868
   15      O      -3.3256639365     2.1781346569    -1.5323764315
   16      O       3.1424383946    -2.3069289038    -1.2832338980
   17      O       2.1048519534    -0.1970882486     2.6752567556
   18      C       2.0812781105    -2.5945537218    -2.2736306288
   19      C       4.7917401947     1.1373337545     1.3926447348
   20      C       6.3462511777     0.9725001551     1.6159128972
   21      C       6.8214002696     0.5953236659     0.1643535635
   22      C       5.4525035466     0.6238948407    -0.6217415988
   23      O       4.6926503260     1.7135135077     0.0347330869
   24      H       4.5951241025    -1.0154959374     1.9516915279
   25      H       5.2578268806    -1.5788029327    -0.2275619659
   26      H       4.2731899341     1.7785041506     2.1319586259
   27      H       6.7875910064     1.9242788130     1.9520216834
   28      H       6.5795773729     0.1932563665     2.3589569924
   29      H       7.5157498601     1.3479093028    -0.2419091832
   30      H       7.3053957907    -0.3932929371     0.1188080483
   31      H       5.5290504613     0.8135083262    -1.7097679904
   32      O      -1.9046776472    -1.9234742125     0.6282528016
   33      C      -2.3796622928     3.3143764859    -1.4727572670
   34      C      -5.5412515370     0.3603165004     0.9562893857
   35      C      -6.8526445361    -0.3985564363     0.5149195738
   36      C      -6.2938678835    -1.8538269655     0.2930139110
   37      C      -4.7890225212    -1.6786650167     0.7399041183
   38      O      -4.8442208396    -0.6403294235     1.7968995820
   39      H      -5.2176767705     0.6962694789    -1.2306677430
   40      H      -4.1336336685    -1.3932200027    -1.4011158030
   41      H      -1.4067093392     3.0145019570    -1.0335382025
   42      H      -5.6960193246     1.2994447713     1.5219748850
   43      H      -7.5992974816    -0.3742921575     1.3249626542
   44      H      -7.3035766799     0.0303748514    -0.3944351344
   45      H      -6.8054489039    -2.5881192478     0.9349055379
   46      H      -6.3764507366    -2.1835457535    -0.7551798438
   47      H      -4.2868471723    -2.5901423405     1.1188718443
   48      H      -2.7876598403     4.1558680896    -0.8759419138
   49      H      -2.2261024467     3.6412147874    -2.5176026835
   50      H       1.1439272815    -2.8597781538    -1.7444124535
   51      H       2.4003630757    -3.4518491174    -2.8975523305
   52      H       1.9157464150    -1.6994970187    -2.9077843714
   53      H       0.1070459665     0.0549121203     1.5056618070
   54      H       0.1505587848    -1.5784998469     0.7460306252
   55      H      -0.0189270630     1.1141975264    -0.8256824346
   56      H       0.0958257298    -0.5130804430    -1.5703946391
 ----------------------------------------------------------------

    9   -1510.2745514847      3.81E-09 Convergence criterion met
 Total energy in the final basis set = -1510.27455148
 Final energy is   -1510.27455148469
 **  OPTIMIZATION CONVERGED  **

                    Orbital Energies (a.u.)
 --------------------------------------------------------------

 Alpha MOs
 -- Occupied --
-18.948 -18.941 -18.926 -18.925 -18.888 -18.886 -18.885 -18.877
-18.866 -18.866 -10.112 -10.104 -10.098 -10.095 -10.081 -10.071
-10.061 -10.059 -10.058 -10.057 -10.057 -10.056 -10.041 -10.040
-10.037 -10.035 -10.021 -10.020 -10.020 -10.019  -1.022  -1.017
 -1.003  -1.002  -0.971  -0.968  -0.949  -0.941  -0.930  -0.929
 -0.764  -0.762  -0.731  -0.722  -0.711  -0.705  -0.700  -0.660
 -0.659  -0.620  -0.597  -0.589  -0.545  -0.544  -0.538  -0.537
 -0.515  -0.509  -0.488  -0.472  -0.460  -0.459  -0.456  -0.443
 -0.441  -0.430  -0.429  -0.411  -0.410  -0.409  -0.406  -0.402
 -0.392  -0.384  -0.379  -0.368  -0.367  -0.357  -0.353  -0.347
 -0.345  -0.338  -0.335  -0.334  -0.331  -0.328  -0.325  -0.311
 -0.311  -0.307  -0.305  -0.302  -0.298  -0.294  -0.287  -0.275
 -0.271  -0.249  -0.249  -0.245  -0.241  -0.235  -0.233  -0.187
 -0.182  -0.170  -0.168  -0.159  -0.158  -0.149  -0.145  -0.145
 -0.143

          Ground-State Mulliken Net Atomic Charges

     Atom                 Charge (a.u.)
  ----------------------------------------
      1 O                    -0.218071
      2 C                     0.213205
      3 C                    -0.080865
      4 C                    -0.076204
      5 C                     0.216784
      6 O                    -0.168279
      7 C                    -0.047079
      8 C                    -0.055558
      9 O                    -0.172059
     10 C                     0.212474
     11 C                    -0.078243
     12 C                    -0.080055
     13 C                     0.221428
     14 O                    -0.220466
     15 O                    -0.170095
     16 O                    -0.175056
     17 O                    -0.211304
     18 C                    -0.136813
     19 C                     0.025441
     20 C                    -0.143511
     21 C                    -0.144552
     22 C                     0.025623
     23 O                    -0.188109
     24 H                     0.087341
     25 H                     0.085062
     26 H                     0.085549
     27 H                     0.078621
     28 H                     0.074355
     29 H                     0.078138
     30 H                     0.073449
     31 H                     0.087042
     32 O                    -0.210512
     33 C                    -0.127483
     34 C                     0.024465
     35 C                    -0.142932
     36 C                    -0.145030
     37 C                     0.023301
     38 O                    -0.188775
     39 H                     0.084859
     40 H                     0.085613
     41 H                     0.085508
     42 H                     0.086988
     43 H                     0.078118
     44 H                     0.073026
     45 H                     0.078449
     46 H                     0.072614
     47 H                     0.089984
     48 H                     0.087610
     49 H                     0.089025
     50 H                     0.080966
     51 H                     0.084441
     52 H                     0.098280
     53 H                     0.100511
     54 H                     0.106885
     55 H                     0.095770
     56 H                     0.090126
  ----------------------------------------
  Sum of atomic charges =     0.000000

                    Cartesian Multipole Moments
 -----------------------------------------------------------------
    Charge (ESU x 10^10)
                 0.0000
    Dipole Moment (Debye)
         X       0.2091      Y      -1.2148      Z      -2.4566
       Tot       2.7485
    Quadrupole Moments (Debye-Ang)
        XX    -134.2766     XY      -1.7496     YY    -158.2284
        XZ      10.0793     YZ       3.3236     ZZ    -167.5473

 Total job time:  57.05s(wall), 2705.56s(cpu)
        *  Thank you very much for using Q-Chem.  Have a nice day.  *
