 Q-Chem 5.0, Q-Chem, Inc., Pleasanton, CA (2017)
 Q-Chem 5.0.1 for Intel X86 EM64T Linux

User input:
--------------------------------------------------------------
$molecule
0  1
O -3.1616578801 2.2358579348 0.8345230285
C -3.5882727773 1.6929932103 -0.2070652975
C -4.6135644495 0.5102920714 -0.3247840664
C -3.9775681514 -0.9430552869 -0.4030673483
C -2.4411265218 -1.029481591 -0.0610194278
O -1.7822379218 0.0242623731 -0.7586836375
C -0.2969128306 0.0482785585 -0.693782435
C 0.4047354953 -0.5092631468 0.5963514968
O 1.8538376235 -0.3401874102 0.3281349503
C 2.6113478116 -0.2753573297 1.5345885385
C 4.1493948293 -0.3144034205 1.2228712023
C 4.621065011 -0.6764389228 -0.2505472117
C 3.4996489504 -0.9145993363 -1.32586442
O 3.0369358488 -0.0894722107 -2.1431404868
O -3.3256639365 2.1781346569 -1.5323764315
O 3.1424383946 -2.3069289038 -1.283233898
O 2.1048519534 -0.1970882486 2.6752567556
C 2.0812781105 -2.5945537218 -2.2736306288
C 4.7917401947 1.1373337545 1.3926447348
C 6.3462511777 0.9725001551 1.6159128972
C 6.8214002696 0.5953236659 0.1643535635
C 5.4525035466 0.6238948407 -0.6217415988
O 4.692650326 1.7135135077 0.0347330869
H 4.5951241025 -1.0154959374 1.9516915279
H 5.2578268806 -1.5788029327 -0.2275619659
H 4.2731899341 1.7785041506 2.1319586259
H 6.7875910064 1.924278813 1.9520216834
H 6.5795773729 0.1932563665 2.3589569924
H 7.5157498601 1.3479093028 -0.2419091832
H 7.3053957907 -0.3932929371 0.1188080483
H 5.5290504613 0.8135083262 -1.7097679904
O -1.9046776472 -1.9234742125 0.6282528016
C -2.3796622928 3.3143764859 -1.472757267
C -5.541251537 0.3603165004 0.9562893857
C -6.8526445361 -0.3985564363 0.5149195738
C -6.2938678835 -1.8538269655 0.293013911
C -4.7890225212 -1.6786650167 0.7399041183
O -4.8442208396 -0.6403294235 1.796899582
H -5.2176767705 0.6962694789 -1.230667743
H -4.1336336685 -1.3932200027 -1.401115803
H -1.4067093392 3.014501957 -1.0335382025
H -5.6960193246 1.2994447713 1.521974885
H -7.5992974816 -0.3742921575 1.3249626542
H -7.3035766799 0.0303748514 -0.3944351344
H -6.8054489039 -2.5881192478 0.9349055379
H -6.3764507366 -2.1835457535 -0.7551798438
H -4.2868471723 -2.5901423405 1.1188718443
H -2.7876598403 4.1558680896 -0.8759419138
H -2.2261024467 3.6412147874 -2.5176026835
H 1.1439272815 -2.8597781538 -1.7444124535
H 2.4003630757 -3.4518491174 -2.8975523305
H 1.915746415 -1.6994970187 -2.9077843714
H 0.1070459665 0.0549121203 1.505661807
H 0.1505587848 -1.5784998469 0.7460306252
H -0.018927063 1.1141975264 -0.8256824346
H 0.0958257298 -0.513080443 -1.5703946391
$end

$rem
JOBTYPE                   OPT
METHOD                    B3LYP
DFT_D                     d3_op
BASIS                     STO-3G
GEOM_OPT_MAX_CYCLES       100
GEOM_OPT_TOL_GRADIENT     300
GEOM_OPT_TOL_DISPLACEMENT 1200
GEOM_OPT_TOL_ENERGY       100
SYMMETRY                  False
THRESH                    12
SCF_CONVERGENCE           8
MAX_SUB_FILE_NUM          128
MEM_STATIC                400
MEM_TOTAL                 4000
$end
--------------------------------------------------------------

   16   -1510.2746945515      5.08E-09 Convergence criterion met
 Total energy in the final basis set = -1510.27469455
   14   -1510.2769898851      7.94E-09 Convergence criterion met
 Total energy in the final basis set = -1510.27698989
   14   -1510.2795147313      6.82E-09 Convergence criterion met
 Total energy in the final basis set = -1510.27951473
   14   -1510.2823099690      5.41E-09 Convergence criterion met
 Total energy in the final basis set = -1510.28230997
   14   -1510.2847104089      3.12E-09 Convergence criterion met
 Total energy in the final basis set = -1510.28471041
   14   -1510.2856880040      6.93E-09 Convergence criterion met
 Total energy in the final basis set = -1510.28568800
   14   -1510.2868070026      5.13E-09 Convergence criterion met
 Total energy in the final basis set = -1510.28680700
   13   -1510.2879379555      6.87E-09 Convergence criterion met
   13   -1510.2934073859      8.68E-09 Convergence criterion met
 Total energy in the final basis set = -1510.29340739
   13   -1510.2937029351      5.02E-09 Convergence criterion met
 Total energy in the final basis set = -1510.29370294
   12   -1510.2938361712      8.91E-09 Convergence criterion met
 Total energy in the final basis set = -1510.29383617
   12   -1510.2938544639      2.94E-09 Convergence criterion met
 Total energy in the final basis set = -1510.29385446
   11   -1510.2938537955      7.95E-09 Convergence criterion met
 Total energy in the final basis set = -1510.29385380
   10   -1510.2938560889      5.44E-09 Convergence criterion met
 Total energy in the final basis set = -1510.29385609

             Standard Nuclear Orientation (Angstroms)
    I     Atom           X                Y                Z
 ----------------------------------------------------------------
    1      O      -2.4367171430     1.5112770335     1.1199217518
    2      C      -3.1598720380     1.5925013298     0.1030457320
    3      C      -4.2533319658     0.5781246716    -0.3864221374
    4      C      -3.6697339509    -0.7964397647    -0.9299955721
    5      C      -2.1066068073    -0.9103755472    -0.8561673241
    6      O      -1.5445786381     0.3007576808    -1.3589687460
    7      C      -0.0686776158     0.3210493438    -1.2117981466
    8      C       0.3749444251     0.4591566228     0.2891855227
    9      O       1.8515150869     0.5206356351     0.2335988828
   10      C       2.4505653103     0.1288216118     1.4755664260
   11      C       3.9895515571     0.0284203607     1.2081844459
   12      C       4.3150476884    -0.8495154585    -0.0742566741
   13      C       3.0461282743    -1.5151227370    -0.7262229617
   14      O       2.6433796494    -1.4157372388    -1.9057993018
   15      O      -3.1619920463     2.7081621707    -0.7976732375
   16      O       2.4494716400    -2.3529867130     0.2684431867
   17      O       1.8228294717    -0.0850921166     2.5328305803
   18      C       1.3134219384    -3.1242190529    -0.2943407571
   19      C       4.5967997304     1.4281235274     0.7569517688
   20      C       6.1744728198     1.3230704527     0.7891618129
   21      C       6.4526620211     0.4881150887    -0.5166270504
   22      C       4.9815358324     0.2269693945    -1.0260630552
   23      O       4.2777051289     1.4860382325    -0.6861607111
   24      H       4.4783174951    -0.3643039735     2.1164718662
   25      H       5.0263058682    -1.6560778479     0.1821291815
   26      H       4.1722214795     2.3044253350     1.2845114666
   27      H       6.6291192605     2.3249228619     0.7349967171
   28      H       6.5353669111     0.8188383598     1.6998528978
   29      H       7.0180554464     1.0758116658    -1.2573227845
   30      H       6.9978509818    -0.4480857431    -0.3164832742
   31      H       4.8716251108     0.0027784547    -2.1050303059
   32      O      -1.4479515029    -1.8931454426    -0.4476554977
   33      C      -2.1188622460     3.6809342360    -0.4019692148
   34      C      -5.1508863322     0.0514578336     0.8162639480
   35      C      -6.4507999817    -0.6096310631     0.2084822789
   36      C      -5.8757419607    -1.9710746815    -0.3342118811
   37      C      -4.3526935521    -1.8335708722     0.0546710348
   38      O      -4.3844903744    -1.1007759925     1.3417135522
   39      H      -4.8590814493     1.0797271801    -1.1607816478
   40      H      -3.9760249096    -0.9612379649    -1.9799757637
   41      H      -1.1016765403     3.2697973718    -0.5653678335
   42      H      -5.3263445902     0.7955219834     1.6169841948
   43      H      -7.2028653694    -0.7744996196     0.9962353554
   44      H      -6.8983899655     0.0101899208    -0.5845511108
   45      H      -6.3277574050    -2.8342328429     0.1799186824
   46      H      -6.0184461946    -2.0919627123    -1.4200159930
   47      H      -3.7902791949    -2.7818082781     0.1615207441
   48      H      -2.2131969890     3.9733570746     0.6635445409
   49      H      -2.2630183233     4.5669194053    -1.0471643641
   50      H       0.3722580389    -2.5273927418    -0.3344733788
   51      H       1.1656476303    -3.9834724697     0.3852567119
   52      H       1.5496615812    -3.4917384872    -1.3125441914
   53      H      -0.0635170492     1.3750035361     0.7436839502
   54      H       0.0347184737    -0.4133796371     0.8848088278
   55      H       0.2676561701     1.2087460639    -1.7835005334
   56      H       0.4021837461    -0.5840841438    -1.6549055275
 ----------------------------------------------------------------

    9   -1510.2938560936      5.24E-09 Convergence criterion met
 Total energy in the final basis set = -1510.29385609
 Final energy is   -1510.29385609365
 **  OPTIMIZATION CONVERGED  **

                    Orbital Energies (a.u.)
 --------------------------------------------------------------

 Alpha MOs
 -- Occupied --
-18.949 -18.932 -18.929 -18.922 -18.893 -18.889 -18.885 -18.875
-18.869 -18.865 -10.115 -10.099 -10.096 -10.094 -10.074 -10.066
-10.063 -10.061 -10.061 -10.059 -10.055 -10.044 -10.040 -10.038
-10.034 -10.032 -10.022 -10.021 -10.019 -10.017  -1.026  -1.011
 -1.007  -0.998  -0.972  -0.967  -0.951  -0.934  -0.933  -0.927
 -0.767  -0.760  -0.730  -0.722  -0.710  -0.704  -0.696  -0.663
 -0.650  -0.616  -0.596  -0.584  -0.547  -0.543  -0.540  -0.534
 -0.515  -0.508  -0.486  -0.476  -0.464  -0.459  -0.456  -0.442
 -0.433  -0.432  -0.428  -0.414  -0.410  -0.405  -0.401  -0.400
 -0.389  -0.378  -0.374  -0.366  -0.365  -0.358  -0.351  -0.346
 -0.344  -0.341  -0.334  -0.333  -0.329  -0.327  -0.324  -0.312
 -0.308  -0.306  -0.303  -0.300  -0.292  -0.287  -0.287  -0.276
 -0.270  -0.257  -0.253  -0.246  -0.242  -0.236  -0.232  -0.190
 -0.177  -0.175  -0.170  -0.161  -0.153  -0.150  -0.145  -0.144
 -0.141

          Ground-State Mulliken Net Atomic Charges

     Atom                 Charge (a.u.)
  ----------------------------------------
      1 O                    -0.220612
      2 C                     0.212552
      3 C                    -0.079503
      4 C                    -0.077804
      5 C                     0.221219
      6 O                    -0.168133
      7 C                    -0.050541
      8 C                    -0.054058
      9 O                    -0.173471
     10 C                     0.214609
     11 C                    -0.078202
     12 C                    -0.077686
     13 C                     0.213784
     14 O                    -0.222263
     15 O                    -0.168649
     16 O                    -0.177559
     17 O                    -0.205846
     18 C                    -0.146084
     19 C                     0.025813
     20 C                    -0.144055
     21 C                    -0.143695
     22 C                     0.024305
     23 O                    -0.187171
     24 H                     0.085628
     25 H                     0.083364
     26 H                     0.081900
     27 H                     0.077393
     28 H                     0.073758
     29 H                     0.077316
     30 H                     0.072940
     31 H                     0.089027
     32 O                    -0.209975
     33 C                    -0.128870
     34 C                     0.025579
     35 C                    -0.143900
     36 C                    -0.143970
     37 C                     0.024178
     38 O                    -0.186494
     39 H                     0.086742
     40 H                     0.087296
     41 H                     0.085105
     42 H                     0.084903
     43 H                     0.078682
     44 H                     0.073860
     45 H                     0.079105
     46 H                     0.073360
     47 H                     0.090707
     48 H                     0.090351
     49 H                     0.090296
     50 H                     0.105101
     51 H                     0.084971
     52 H                     0.083628
     53 H                     0.093325
     54 H                     0.099799
     55 H                     0.095861
     56 H                     0.102087
  ----------------------------------------
  Sum of atomic charges =     0.000000

                    Cartesian Multipole Moments
 -----------------------------------------------------------------
    Charge (ESU x 10^10)
                 0.0000
    Dipole Moment (Debye)
         X      -0.6365      Y       0.5734      Z      -1.6389
       Tot       1.8493
    Quadrupole Moments (Debye-Ang)
        XX    -132.7625     XY      -0.5773     YY    -153.7848
        XZ       8.7706     YZ       4.2077     ZZ    -169.5955

 Total job time:  79.27s(wall), 3778.40s(cpu)
        *  Thank you very much for using Q-Chem.  Have a nice day.  *
