 Q-Chem 5.0, Q-Chem, Inc., Pleasanton, CA (2017)
 Q-Chem 5.0.1 for Intel X86 EM64T Linux

User input:
--------------------------------------------------------------
$molecule
0  1
O -3.1702004372 -0.2966327555 2.3505574122
C -3.5548085491 0.620594917 1.5940619189
C -4.6084064649 0.5368674667 0.4359598639
C -4.0015590783 0.20177394 -0.9937515277
C -2.4948611714 -0.2633948459 -0.9864454238
O -1.7429266539 0.7436269565 -0.3125403856
C -0.2606760013 0.6462499896 -0.3835589137
C 0.4074444612 -0.7600928984 -0.5988527667
O 1.865913831 -0.4816843965 -0.6221632597
C 2.6163737991 -1.5598485182 -0.0688518757
C 4.1578328566 -1.265443833 -0.1455382208
C 4.6350133476 0.166154515 -0.6423649613
C 3.5268115567 1.1609784431 -1.1399409017
O 2.9908919988 2.0953129017 -0.5053394684
O -3.1609062118 1.9928009458 1.7289461643
O 3.3235429774 0.9067044527 -2.5410963706
O 2.1020348118 -2.587473575 0.4246010909
C 2.2836641598 1.8086157917 -3.0824024881
C 4.768882948 -1.2862152717 1.3239607617
C 6.3363019994 -1.4486760913 1.2249002461
C 6.7654757501 -0.0025624739 0.7768000555
C 5.3606727381 0.7071705402 0.6640993361
O 4.5835625168 0.111186901 1.7754133237
H 4.6072513758 -2.0599966558 -0.769501888
H 5.3509249645 0.0417177505 -1.4743374641
H 4.2598576792 -1.9929856244 2.0082777947
H 6.7589162594 -1.7104824628 2.2078043913
H 6.6256681684 -2.2242571947 0.4977715681
H 7.3841043018 0.4895759917 1.5440601084
H 7.3147112218 0.0041668048 -0.1780582863
H 5.3700325625 1.8108892637 0.7509327378
O -2.0493335974 -1.2923138125 -1.5367427366
C -2.1522179831 2.1244500658 2.8040307847
C -5.6409015797 -0.6597172496 0.6079670695
C -6.9237579548 -0.3098497701 -0.243183313
C -6.3766747885 -0.5172703732 -1.7050148409
C -4.9088262818 -1.0240195176 -1.4171990346
O -5.0310873069 -1.77760352 -0.146679319
H -5.1297634914 1.5099393166 0.3990986971
H -4.0948516503 1.065289689 -1.6778125499
H -1.2566726634 1.5023706915 2.6025980446
H -5.8268120961 -0.9580187759 1.6578675266
H -7.7382139483 -1.0157584465 -0.0148418976
H -7.2825486452 0.715584493 -0.0605857811
H -6.9509875134 -1.2845137505 -2.2478877815
H -6.3834545798 0.4124813219 -2.2962847064
H -4.4528003288 -1.6609757341 -2.1997546824
H -2.5659655068 1.8326467244 3.7912795321
H -1.863772883 3.1914721886 2.8247026342
H 1.4041987937 1.2100185316 -3.3941296729
H 2.6935645141 2.3364913285 -3.9655261521
H 1.9870595183 2.5407986949 -2.3035617587
H 0.1700035732 -1.4725660938 0.2194642819
H 0.0875336621 -1.2084375803 -1.5607993295
H 0.1086139818 1.0763779523 0.5707691141
H 0.0791804112 1.3157914011 -1.2045232759
$end

$rem
JOBTYPE                   OPT
METHOD                    B3LYP
DFT_D                     d3_op
BASIS                     STO-3G
GEOM_OPT_MAX_CYCLES       100
GEOM_OPT_TOL_GRADIENT     300
GEOM_OPT_TOL_DISPLACEMENT 1200
GEOM_OPT_TOL_ENERGY       100
SYMMETRY                  False
THRESH                    12
SCF_CONVERGENCE           8
MAX_SUB_FILE_NUM          128
MEM_STATIC                400
MEM_TOTAL                 4000
$end
--------------------------------------------------------------

   16   -1510.2738619328      5.44E-09 Convergence criterion met
 Total energy in the final basis set = -1510.27386193
   14   -1510.2761512305      6.42E-09 Convergence criterion met
 Total energy in the final basis set = -1510.27615123
   14   -1510.2787308562      4.57E-09 Convergence criterion met
 Total energy in the final basis set = -1510.27873086
   14   -1510.2812923547      3.59E-09 Convergence criterion met
 Total energy in the final basis set = -1510.28129235
   14   -1510.2834331244      4.64E-09 Convergence criterion met
 Total energy in the final basis set = -1510.28343312
   14   -1510.2847627922      3.84E-09 Convergence criterion met
 Total energy in the final basis set = -1510.28476279
   13   -1510.2856673158      4.39E-09 Convergence criterion met
 Total energy in the final basis set = -1510.28566732
   13   -1510.2864421387      5.42E-09 Convergence criterion met
   12   -1510.2986050917      4.88E-09 Convergence criterion met
 Total energy in the final basis set = -1510.29860509
   12   -1510.2986514895      8.40E-09 Convergence criterion met
 Total energy in the final basis set = -1510.29865149
   11   -1510.2986560640      5.71E-09 Convergence criterion met
 Total energy in the final basis set = -1510.29865606
   10   -1510.2986591197      9.19E-09 Convergence criterion met
 Total energy in the final basis set = -1510.29865912
   10   -1510.2986675924      8.63E-09 Convergence criterion met
 Total energy in the final basis set = -1510.29866759
   10   -1510.2986682745      6.97E-09 Convergence criterion met
 Total energy in the final basis set = -1510.29866827

             Standard Nuclear Orientation (Angstroms)
    I     Atom           X                Y                Z
 ----------------------------------------------------------------
    1      O      -2.0504353781     0.8124639554     1.2698537939
    2      C      -2.6451398655     1.2757636654     0.2678452005
    3      C      -3.8884019419     0.6534924013    -0.4526390057
    4      C      -3.9117463901    -0.9309888047    -0.4144901476
    5      C      -2.6508417472    -1.5874704797     0.2572364741
    6      O      -1.5167738660    -1.3235195236    -0.5767892620
    7      C      -0.2888392992    -1.8980600739     0.0241334968
    8      C       0.1239236000    -1.1605295298     1.3621228782
    9      O       1.5867776315    -0.9068105832     1.4002184030
   10      C       1.9201526165     0.3003114884     0.7165731903
   11      C       3.4826179190     0.4754962133     0.7701125976
   12      C       4.2890453776    -0.5362809804    -0.1445718973
   13      C       3.3627405604    -1.4568606527    -1.0022909072
   14      O       2.2096304467    -1.1904222862    -1.4146556293
   15      O      -2.3097448770     2.4998472133    -0.3730138840
   16      O       4.0516838155    -2.6726529425    -1.2910648077
   17      O       1.0961212661     1.1093725814     0.2374696273
   18      C       3.1961289257    -3.5564776160    -2.1192857606
   19      C       3.9218494666     1.8668486268     0.1522046451
   20      C       5.3878120047     2.1834964898     0.6419797049
   21      C       6.2191006581     1.1637969149    -0.2227811643
   22      C       5.0785160708     0.4851749683    -1.0800190245
   23      O       4.0955956501     1.5691921892    -1.2897236749
   24      H       3.8013610857     0.3765318640     1.8235131422
   25      H       4.9807568512    -1.1700742699     0.4375671311
   26      H       3.1775992438     2.6749278741     0.2897848250
   27      H       5.6576808308     3.2256038244     0.4078815256
   28      H       5.5072950393     2.0203752637     1.7249786026
   29      H       6.9374426993     1.6797071723    -0.8795899726
   30      H       6.7650135740     0.4300798980     0.3915706800
   31      H       5.4058159018     0.0599368182    -2.0488685838
   32      O      -2.6209531688    -2.2861502507     1.2927076688
   33      C      -1.1214305979     3.1079213711     0.2796247012
   34      C      -5.2240301142     0.9813906322     0.3508603528
   35      C      -6.4622990181     0.6334041542    -0.5687024492
   36      C      -6.4753339604    -0.9385008598    -0.4817392464
   37      C      -5.2196221296    -1.2000283626     0.4378834179
   38      O      -5.2525719812    -0.0671533059     1.3931211501
   39      H      -3.9286458681     1.0436251832    -1.4844182423
   40      H      -4.0022951115    -1.3358744297    -1.4388845049
   41      H      -0.2630820931     2.3970529407     0.2832671268
   42      H      -5.2474303695     1.9891414510     0.8094239467
   43      H      -7.3845576605     1.0701839994    -0.1536151482
   44      H      -6.3294499596     1.0016544772    -1.5986878847
   45      H      -7.3923791442    -1.3073324564     0.0046746436
   46      H      -6.3786848389    -1.4213549581    -1.4672099556
   47      H      -5.2089189437    -2.1630207424     0.9842410055
   48      H      -1.3535126454     3.4135003019     1.3200639018
   49      H      -0.8772271818     4.0030460203    -0.3205547102
   50      H       2.2609847977    -3.8282974744    -1.5885166267
   51      H       3.7935362223    -4.4672473949    -2.3076707751
   52      H       2.9280755664    -3.0788251563    -3.0836331748
   53      H      -0.4620815596    -0.2122305699     1.4342731645
   54      H      -0.0927947184    -1.7946870975     2.2432046178
   55      H       0.5155075744    -1.7396024673    -0.7306190270
   56      H      -0.4198251945    -2.9853027535     0.2085968786
 ----------------------------------------------------------------

   10   -1510.2986690532      7.18E-09 Convergence criterion met
 Total energy in the final basis set = -1510.29866905
 Final energy is   -1510.29866905321
 **  OPTIMIZATION CONVERGED  **

                    Orbital Energies (a.u.)
 --------------------------------------------------------------

 Alpha MOs
 -- Occupied --
-18.949 -18.929 -18.925 -18.917 -18.891 -18.889 -18.882 -18.874
-18.868 -18.861 -10.111 -10.101 -10.094 -10.087 -10.073 -10.065
-10.060 -10.056 -10.051 -10.047 -10.045 -10.044 -10.039 -10.038
-10.031 -10.029 -10.024 -10.022 -10.016 -10.015  -1.024  -1.007
 -1.004  -0.996  -0.974  -0.965  -0.947  -0.933  -0.928  -0.922
 -0.766  -0.756  -0.727  -0.718  -0.711  -0.701  -0.684  -0.671
 -0.650  -0.612  -0.594  -0.577  -0.548  -0.540  -0.537  -0.530
 -0.515  -0.504  -0.479  -0.463  -0.462  -0.457  -0.449  -0.445
 -0.434  -0.429  -0.422  -0.422  -0.417  -0.410  -0.399  -0.397
 -0.385  -0.378  -0.366  -0.364  -0.357  -0.355  -0.351  -0.348
 -0.344  -0.339  -0.333  -0.331  -0.324  -0.321  -0.316  -0.313
 -0.307  -0.304  -0.300  -0.297  -0.291  -0.285  -0.275  -0.272
 -0.269  -0.261  -0.252  -0.240  -0.237  -0.229  -0.226  -0.189
 -0.180  -0.170  -0.165  -0.153  -0.152  -0.148  -0.147  -0.140
 -0.138

          Ground-State Mulliken Net Atomic Charges

     Atom                 Charge (a.u.)
  ----------------------------------------
      1 O                    -0.218612
      2 C                     0.218723
      3 C                    -0.078255
      4 C                    -0.079679
      5 C                     0.212206
      6 O                    -0.175353
      7 C                    -0.063144
      8 C                    -0.066013
      9 O                    -0.178101
     10 C                     0.222086
     11 C                    -0.079771
     12 C                    -0.078159
     13 C                     0.217826
     14 O                    -0.211503
     15 O                    -0.167604
     16 O                    -0.165176
     17 O                    -0.215803
     18 C                    -0.128573
     19 C                     0.025033
     20 C                    -0.143824
     21 C                    -0.143662
     22 C                     0.025870
     23 O                    -0.187172
     24 H                     0.085874
     25 H                     0.088756
     26 H                     0.089694
     27 H                     0.078722
     28 H                     0.074086
     29 H                     0.078840
     30 H                     0.074433
     31 H                     0.083229
     32 O                    -0.216257
     33 C                    -0.144304
     34 C                     0.025477
     35 C                    -0.143836
     36 C                    -0.144010
     37 C                     0.024476
     38 O                    -0.188233
     39 H                     0.087201
     40 H                     0.083250
     41 H                     0.118269
     42 H                     0.082214
     43 H                     0.077223
     44 H                     0.073603
     45 H                     0.077139
     46 H                     0.072579
     47 H                     0.089327
     48 H                     0.079515
     49 H                     0.083969
     50 H                     0.091239
     51 H                     0.093535
     52 H                     0.092361
     53 H                     0.115841
     54 H                     0.089892
     55 H                     0.106597
     56 H                     0.077957
  ----------------------------------------
  Sum of atomic charges =     0.000000

                    Cartesian Multipole Moments
 -----------------------------------------------------------------
    Charge (ESU x 10^10)
                 0.0000
    Dipole Moment (Debye)
         X       2.4608      Y      -0.6028      Z      -1.4411
       Tot       2.9147
    Quadrupole Moments (Debye-Ang)
        XX    -138.2701     XY      -3.4946     YY    -152.0759
        XZ      11.0435     YZ       9.9451     ZZ    -163.2637

 Total job time:  180.21s(wall), 8595.10s(cpu)
        *  Thank you very much for using Q-Chem.  Have a nice day.  *
