 Q-Chem 5.0, Q-Chem, Inc., Pleasanton, CA (2017)
 Q-Chem 5.0.1 for Intel X86 EM64T Linux

User input:
--------------------------------------------------------------
$molecule
0  1
O -3.94934 -3.66094 2.70899
C -3.26408 -4.56952 2.26188
C -3.36658 -6.02376 2.66595
C -2.47158 -6.49616 3.82339
C -1.70481 -5.4232 4.56426
O -0.96154 -4.6914 3.68253
C -0.03083 -3.81294 4.3239
C -0.53091 -3.44333 5.71653
O 0.40805 -2.56492 6.35656
C -0.13166 -1.64435 7.19346
C 0.90797 -0.78136 7.86805
C 2.346 -0.99392 7.37292
C 2.49032 -1.74842 6.06655
O 2.65993 -1.23846 4.96849
O -2.29138 -4.27141 1.36018
O 2.95371 -3.02083 6.24728
O -1.32467 -1.55411 7.45679
C 3.49863 -3.85095 5.28504
C 0.72719 0.72468 7.59631
C 1.37926 1.52472 8.72213
C 2.84498 1.26123 8.44177
C 2.73566 0.47943 7.1262
O 1.57989 0.99744 6.51315
H 0.80854 -0.96819 8.96126
H 3.00063 -1.47246 8.13577
H -0.33531 1.02789 7.47185
H 1.16532 2.59868 8.5184
H 1.04138 1.27494 9.75087
H 3.35258 2.23883 8.28519
H 3.37942 0.6719 9.21807
H 3.67966 0.57197 6.54458
O -2.35956 -4.9955 5.51136
C -2.02705 -3.00051 0.89432
C -4.75647 -6.38805 3.24291
C -5.02481 -7.87973 3.04745
C -4.05498 -8.47328 4.04716
C -3.52865 -7.19499 4.71058
O -4.6105 -6.29983 4.63856
H -3.24103 -6.61769 1.73228
H -1.70269 -7.218 3.46929
H -1.74003 -2.33605 1.73727
H -5.58651 -5.79479 2.80015
H -6.06244 -8.06872 3.40581
H -4.92607 -8.25815 2.00735
H -4.63122 -9.09086 4.77136
H -3.22761 -9.07195 3.60833
H -3.14003 -7.41908 5.72848
H -2.92052 -2.58849 0.37835
H -1.18586 -3.04535 0.1727
H 2.95067 -4.81409 5.27682
H 4.55433 -4.06464 5.55049
H 3.47058 -3.40585 4.26786
H -1.51155 -2.92315 5.58701
H -0.49852 -4.31948 6.40476
H 0.05345 -2.88564 3.71838
H 0.95886 -4.2995 4.36058
$end

$opt
CONSTRAINT
tors           1           2           3           4     -91.171
tors           3           4           5           6     -54.798
tors           4           5           6           7    -169.659
tors           5           6           7           8     -26.312
tors           6           7           8           9    +179.851
tors           7           8           9          10    +147.013
tors           8           9          10          11    +178.163
tors           9          10          11          12      +6.484
tors          11          12          13          14     +98.548
ENDCONSTRAINT
$end

$rem
JOBTYPE                   OPT
METHOD                    B3LYP
DFT_D                     d3_op
BASIS                     STO-3G
GEOM_OPT_MAX_CYCLES       100
GEOM_OPT_TOL_GRADIENT     300
GEOM_OPT_TOL_DISPLACEMENT 1200
GEOM_OPT_TOL_ENERGY       100
SYMMETRY                  False
THRESH                    12
SCF_CONVERGENCE           8
MAX_SUB_FILE_NUM          128
MEM_STATIC                400
MEM_TOTAL                 4000
$end
--------------------------------------------------------------

   16   -1510.0974602357      2.79E-09 Convergence criterion met
 Total energy in the final basis set = -1510.09746024
   14   -1510.1733876003      4.07E-09 Convergence criterion met
 Total energy in the final basis set = -1510.17338760
   14   -1510.2190739750      7.79E-09 Convergence criterion met
 Total energy in the final basis set = -1510.21907398
   14   -1510.2444751361      5.81E-09 Convergence criterion met
 Total energy in the final basis set = -1510.24447514
   14   -1510.2571817133      2.86E-09 Convergence criterion met
 Total energy in the final basis set = -1510.25718171
   14   -1510.2636815473      4.07E-09 Convergence criterion met
 Total energy in the final basis set = -1510.26368155
   14   -1510.2678065767      5.27E-09 Convergence criterion met
 Total energy in the final basis set = -1510.26780658
   13   -1510.2706601318      6.20E-09 Convergence criterion met
   11   -1510.2737565529      7.99E-09 Convergence criterion met
 Total energy in the final basis set = -1510.27375655
   11   -1510.2737837910      8.01E-09 Convergence criterion met
 Total energy in the final basis set = -1510.27378379
   10   -1510.2738000235      5.97E-09 Convergence criterion met
 Total energy in the final basis set = -1510.27380002
   11   -1510.2738115217      3.00E-09 Convergence criterion met
 Total energy in the final basis set = -1510.27381152
    9   -1510.2738173309      9.66E-09 Convergence criterion met
 Total energy in the final basis set = -1510.27381733
    9   -1510.2738198736      8.45E-09 Convergence criterion met
 Total energy in the final basis set = -1510.27381987

             Standard Nuclear Orientation (Angstroms)
    I     Atom           X                Y                Z
 ----------------------------------------------------------------
    1      O      -3.1702004372    -0.2966327555     2.3505574122
    2      C      -3.5548085491     0.6205949170     1.5940619189
    3      C      -4.6084064649     0.5368674667     0.4359598639
    4      C      -4.0015590783     0.2017739400    -0.9937515277
    5      C      -2.4948611714    -0.2633948459    -0.9864454238
    6      O      -1.7429266539     0.7436269565    -0.3125403856
    7      C      -0.2606760013     0.6462499896    -0.3835589137
    8      C       0.4074444612    -0.7600928984    -0.5988527667
    9      O       1.8659138310    -0.4816843965    -0.6221632597
   10      C       2.6163737991    -1.5598485182    -0.0688518757
   11      C       4.1578328566    -1.2654438330    -0.1455382208
   12      C       4.6350133476     0.1661545150    -0.6423649613
   13      C       3.5268115567     1.1609784431    -1.1399409017
   14      O       2.9908919988     2.0953129017    -0.5053394684
   15      O      -3.1609062118     1.9928009458     1.7289461643
   16      O       3.3235429774     0.9067044527    -2.5410963706
   17      O       2.1020348118    -2.5874735750     0.4246010909
   18      C       2.2836641598     1.8086157917    -3.0824024881
   19      C       4.7688829480    -1.2862152717     1.3239607617
   20      C       6.3363019994    -1.4486760913     1.2249002461
   21      C       6.7654757501    -0.0025624739     0.7768000555
   22      C       5.3606727381     0.7071705402     0.6640993361
   23      O       4.5835625168     0.1111869010     1.7754133237
   24      H       4.6072513758    -2.0599966558    -0.7695018880
   25      H       5.3509249645     0.0417177505    -1.4743374641
   26      H       4.2598576792    -1.9929856244     2.0082777947
   27      H       6.7589162594    -1.7104824628     2.2078043913
   28      H       6.6256681684    -2.2242571947     0.4977715681
   29      H       7.3841043018     0.4895759917     1.5440601084
   30      H       7.3147112218     0.0041668048    -0.1780582863
   31      H       5.3700325625     1.8108892637     0.7509327378
   32      O      -2.0493335974    -1.2923138125    -1.5367427366
   33      C      -2.1522179831     2.1244500658     2.8040307847
   34      C      -5.6409015797    -0.6597172496     0.6079670695
   35      C      -6.9237579548    -0.3098497701    -0.2431833130
   36      C      -6.3766747885    -0.5172703732    -1.7050148409
   37      C      -4.9088262818    -1.0240195176    -1.4171990346
   38      O      -5.0310873069    -1.7776035200    -0.1466793190
   39      H      -5.1297634914     1.5099393166     0.3990986971
   40      H      -4.0948516503     1.0652896890    -1.6778125499
   41      H      -1.2566726634     1.5023706915     2.6025980446
   42      H      -5.8268120961    -0.9580187759     1.6578675266
   43      H      -7.7382139483    -1.0157584465    -0.0148418976
   44      H      -7.2825486452     0.7155844930    -0.0605857811
   45      H      -6.9509875134    -1.2845137505    -2.2478877815
   46      H      -6.3834545798     0.4124813219    -2.2962847064
   47      H      -4.4528003288    -1.6609757341    -2.1997546824
   48      H      -2.5659655068     1.8326467244     3.7912795321
   49      H      -1.8637728830     3.1914721886     2.8247026342
   50      H       1.4041987937     1.2100185316    -3.3941296729
   51      H       2.6935645141     2.3364913285    -3.9655261521
   52      H       1.9870595183     2.5407986949    -2.3035617587
   53      H       0.1700035732    -1.4725660938     0.2194642819
   54      H       0.0875336621    -1.2084375803    -1.5607993295
   55      H       0.1086139818     1.0763779523     0.5707691141
   56      H       0.0791804112     1.3157914011    -1.2045232759
 ----------------------------------------------------------------

    9   -1510.2738204179      3.13E-09 Convergence criterion met
 Total energy in the final basis set = -1510.27382042
 Final energy is   -1510.27382041794
 **  OPTIMIZATION CONVERGED  **

                    Orbital Energies (a.u.)
 --------------------------------------------------------------

 Alpha MOs
 -- Occupied --
-18.943 -18.942 -18.928 -18.925 -18.888 -18.885 -18.885 -18.878
-18.868 -18.867 -10.109 -10.105 -10.099 -10.095 -10.080 -10.072
-10.060 -10.060 -10.058 -10.057 -10.057 -10.056 -10.041 -10.039
-10.037 -10.035 -10.021 -10.020 -10.020 -10.018  -1.021  -1.016
 -1.004  -1.003  -0.971  -0.968  -0.947  -0.941  -0.930  -0.930
 -0.764  -0.762  -0.730  -0.722  -0.710  -0.705  -0.700  -0.660
 -0.659  -0.620  -0.597  -0.589  -0.545  -0.544  -0.538  -0.536
 -0.514  -0.509  -0.487  -0.471  -0.459  -0.458  -0.456  -0.444
 -0.441  -0.430  -0.429  -0.411  -0.410  -0.409  -0.407  -0.402
 -0.393  -0.382  -0.378  -0.368  -0.367  -0.358  -0.351  -0.347
 -0.346  -0.339  -0.335  -0.333  -0.331  -0.328  -0.326  -0.313
 -0.310  -0.307  -0.305  -0.299  -0.298  -0.296  -0.285  -0.275
 -0.272  -0.251  -0.249  -0.245  -0.240  -0.235  -0.232  -0.186
 -0.181  -0.171  -0.167  -0.160  -0.158  -0.150  -0.146  -0.146
 -0.142

          Ground-State Mulliken Net Atomic Charges

     Atom                 Charge (a.u.)
  ----------------------------------------
      1 O                    -0.215245
      2 C                     0.210727
      3 C                    -0.080241
      4 C                    -0.076304
      5 C                     0.215203
      6 O                    -0.170181
      7 C                    -0.048454
      8 C                    -0.054147
      9 O                    -0.172514
     10 C                     0.213460
     11 C                    -0.077321
     12 C                    -0.080775
     13 C                     0.221861
     14 O                    -0.222610
     15 O                    -0.168560
     16 O                    -0.174329
     17 O                    -0.212055
     18 C                    -0.136292
     19 C                     0.024777
     20 C                    -0.144092
     21 C                    -0.143934
     22 C                     0.024900
     23 O                    -0.189762
     24 H                     0.087222
     25 H                     0.085281
     26 H                     0.088028
     27 H                     0.078865
     28 H                     0.074039
     29 H                     0.078141
     30 H                     0.073421
     31 H                     0.087257
     32 O                    -0.209240
     33 C                    -0.127475
     34 C                     0.024801
     35 C                    -0.143146
     36 C                    -0.144981
     37 C                     0.023570
     38 O                    -0.187859
     39 H                     0.085080
     40 H                     0.085161
     41 H                     0.087429
     42 H                     0.086724
     43 H                     0.078080
     44 H                     0.073028
     45 H                     0.078308
     46 H                     0.072492
     47 H                     0.089815
     48 H                     0.087369
     49 H                     0.089588
     50 H                     0.080533
     51 H                     0.084031
     52 H                     0.098282
     53 H                     0.103746
     54 H                     0.104515
     55 H                     0.095971
     56 H                     0.087814
  ----------------------------------------
  Sum of atomic charges =     0.000000

                    Cartesian Multipole Moments
 -----------------------------------------------------------------
    Charge (ESU x 10^10)
                 0.0000
    Dipole Moment (Debye)
         X       0.5191      Y       2.3405      Z      -2.0750
       Tot       3.1707
    Quadrupole Moments (Debye-Ang)
        XX    -134.8934     XY     -10.7076     YY    -168.0058
        XZ       0.8106     YZ      -0.1277     ZZ    -157.2088

 Total job time:  58.57s(wall), 2785.60s(cpu)
        *  Thank you very much for using Q-Chem.  Have a nice day.  *
