 Q-Chem 5.0, Q-Chem, Inc., Pleasanton, CA (2017)
 Q-Chem 5.0.1 for Intel X86 EM64T Linux

User input:
--------------------------------------------------------------
$molecule
0  1
O -3.6589835564 2.2254857383 0.8702990618
C -3.847963249 1.6735680002 -0.234796253
C -4.6659545739 0.3693278817 -0.5301262249
C -3.8431168904 -0.9729100493 -0.3001164415
C -2.420557526 -0.7684765932 0.3457352754
O -1.709530414 0.1693886556 -0.470317978
C -0.2321555919 0.0349010661 -0.4928964344
C 0.5043156201 -0.3516493216 0.841553458
O 1.9403015284 -0.4041131722 0.4737800687
C 2.7833565461 -0.0028854483 1.5498651143
C 4.294591031 -0.1111959402 1.1374731221
C 4.6591509594 -0.712381793 -0.2883986867
C 3.4635081346 -1.1582791888 -1.204946457
O 2.9151839416 -0.5053346752 -2.1192981506
O -3.3836716682 2.1953711905 -1.4867741687
O 3.1602356914 -2.5282197498 -0.8891708777
O 2.3617574391 0.4012723032 2.6557994586
C 2.0199151308 -3.000401877 -1.7051732425
C 4.9344377235 1.343344177 1.0179731941
C 6.5042603168 1.2112379169 1.1246846128
C 6.8572975271 0.6270685263 -0.2932973454
C 5.4224895206 0.5186281471 -0.9415641088
O 4.7050455255 1.6962623573 -0.3997493508
H 4.7970318128 -0.6879239632 1.9356525091
H 5.3231264938 -1.5865346997 -0.1639338502
H 4.4764153679 2.0944960153 1.6907445487
H 6.9628700029 2.2005878528 1.2808749899
H 6.8091674571 0.546759495 1.9487225871
H 7.489132447 1.3207096164 -0.8705456859
H 7.3636468902 -0.349834296 -0.238562924
H 5.393435755 0.5292373327 -2.0482534814
O -1.9751764778 -1.3778130374 1.3409051786
C -2.5362182443 3.3856252917 -1.2503603085
C -5.871137889 0.152831754 0.4820434738
C -6.8839100469 -0.8613435405 -0.1802847995
C -6.08668064 -2.2125134918 -0.0474420113
C -4.7903582284 -1.7308370267 0.7163699234
O -5.2751904422 -0.632910792 1.5854481826
H -5.0199254795 0.4239400445 -1.574695347
H -3.7060522005 -1.5221895643 -1.2501330284
H -1.6289909313 3.1242699541 -0.6682022653
H -6.3169932453 1.0883434024 0.8716035219
H -7.8248808684 -0.8918950204 0.3917231237
H -7.1132795411 -0.6015404281 -1.2260275727
H -6.6389187831 -2.9512927211 0.5546439991
H -5.8472440386 -2.6621491542 -1.0244716189
H -4.2705722764 -2.499033092 1.3214785651
H -3.0865649318 4.1802854667 -0.7062151648
H -2.2401076193 3.7554290923 -2.2492390866
H 1.1537243803 -3.2043338733 -1.0440820463
H 2.3120619145 -3.9363447955 -2.2198605964
H 1.7521435628 -2.2221403482 -2.4490877738
H 0.3417250042 0.3987678084 1.644022881
H 0.1617760779 -1.3403813196 1.2101023946
H 0.1439813696 1.0185968148 -0.8430757775
H 0.0377763219 -0.7215104014 -1.2640377589
$end

$rem
JOBTYPE                   OPT
METHOD                    B3LYP
DFT_D                     d3_op
BASIS                     STO-3G
GEOM_OPT_MAX_CYCLES       100
GEOM_OPT_TOL_GRADIENT     300
GEOM_OPT_TOL_DISPLACEMENT 1200
GEOM_OPT_TOL_ENERGY       100
SYMMETRY                  False
THRESH                    12
SCF_CONVERGENCE           8
MAX_SUB_FILE_NUM          128
MEM_STATIC                400
MEM_TOTAL                 4000
$end
--------------------------------------------------------------

   16   -1510.2721176046      5.19E-09 Convergence criterion met
 Total energy in the final basis set = -1510.27211760
   15   -1510.2759121081      2.89E-09 Convergence criterion met
 Total energy in the final basis set = -1510.27591211
   14   -1510.2792337402      5.78E-09 Convergence criterion met
 Total energy in the final basis set = -1510.27923374
   15   -1510.2823116797      3.28E-09 Convergence criterion met
 Total energy in the final basis set = -1510.28231168
   14   -1510.2846465405      8.25E-09 Convergence criterion met
 Total energy in the final basis set = -1510.28464654
   14   -1510.2853728625      3.93E-09 Convergence criterion met
 Total energy in the final basis set = -1510.28537286
   14   -1510.2861777565      4.33E-09 Convergence criterion met
 Total energy in the final basis set = -1510.28617776
   13   -1510.2865838347      3.83E-09 Convergence criterion met
   12   -1510.2938086081      6.39E-09 Convergence criterion met
 Total energy in the final basis set = -1510.29380861
   12   -1510.2938167200      3.84E-09 Convergence criterion met
 Total energy in the final basis set = -1510.29381672
   11   -1510.2938347247      6.25E-09 Convergence criterion met
 Total energy in the final basis set = -1510.29383472
   11   -1510.2938344980      5.61E-09 Convergence criterion met
 Total energy in the final basis set = -1510.29383450
   10   -1510.2938320524      3.92E-09 Convergence criterion met
 Total energy in the final basis set = -1510.29383205
    9   -1510.2938308874      5.09E-09 Convergence criterion met
 Total energy in the final basis set = -1510.29383089

             Standard Nuclear Orientation (Angstroms)
    I     Atom           X                Y                Z
 ----------------------------------------------------------------
    1      O      -2.3781401922     1.5458444200     0.9527835147
    2      C      -3.1206177903     1.5445654566    -0.0534436678
    3      C      -4.2226724794     0.4962765720    -0.4434287999
    4      C      -3.6521101609    -0.9081856261    -0.9203188082
    5      C      -2.0879486578    -1.0229098873    -0.8632653438
    6      O      -1.5295764385     0.1551439166    -1.4427381201
    7      C      -0.0539414525     0.1893194687    -1.2925071928
    8      C       0.3775561996     0.4080441755     0.2020400818
    9      O       1.8522881796     0.5022890966     0.1549643247
   10      C       2.4449328686     0.1896910362     1.4220214824
   11      C       3.9879019851     0.1081420379     1.1762874862
   12      C       4.3497044031    -0.8674347112    -0.0234746909
   13      C       3.0982200234    -1.5806217951    -0.6600758516
   14      O       2.7227507924    -1.5559285507    -1.8524506673
   15      O      -3.1451603424     2.5871907671    -1.0373875980
   16      O       2.4810926526    -2.3590155422     0.3701198408
   17      O       1.8098928313     0.0163046921     2.4823746380
   18      C       1.3608187334    -3.1687643199    -0.1704685455
   19      C       4.5674023626     1.4801434983     0.6148914502
   20      C       6.1447657437     1.4245700363     0.7006172660
   21      C       6.4826522536     0.4701328540    -0.5048968628
   22      C       5.0353294353     0.1340824658    -1.0398936666
   23      O       4.2927717005     1.4003765474    -0.8363265760
   24      H       4.4779879937    -0.1932032546     2.1179462105
   25      H       5.0527641903    -1.6517593907     0.3128709125
   26      H       4.1032527724     2.3868631905     1.0493733212
   27      H       6.5733540309     2.4287673940     0.5545590465
   28      H       6.4926575530     1.0282521126     1.6679739991
   29      H       7.0687949824     0.9899125712    -1.2793860370
   30      H       7.0317921308    -0.4321918037    -0.1917673836
   31      H       4.9700196196    -0.1852353657    -2.0982790109
   32      O      -1.4255262171    -1.9804721394    -0.4038990174
   33      C      -2.0995850913     3.5918576076    -0.7390243344
   34      C      -5.0836419638     0.0437642766     0.8146264582
   35      C      -6.4048933372    -0.6435727040     0.2882308100
   36      C      -5.8504951581    -2.0328481002    -0.2035971921
   37      C      -4.3163663079    -1.8851416552     0.1353152319
   38      O      -4.3072388498    -1.0825804839     1.3805466520
   39      H      -4.8519384816     0.9487202818    -1.2292451921
   40      H      -3.9769918178    -1.1311236676    -1.9537407468
   41      H      -1.0843002120     3.1788895714    -0.9095056620
   42      H      -5.2303270245     0.8327572129     1.5772681815
   43      H      -7.1276122493    -0.7666073973     1.1104686456
   44      H      -6.8825249783    -0.0653507309    -0.5188176706
   45      H      -6.2912251244    -2.8675951740     0.3642325548
   46      H      -6.0243427126    -2.2053567402    -1.2778608778
   47      H      -3.7571173250    -2.8304096833     0.2790088586
   48      H      -2.1622983852     3.9501013715     0.3085624354
   49      H      -2.2729530532     4.4338984488    -1.4338532101
   50      H       0.4117478335    -2.5875989995    -0.2404634987
   51      H       1.2196245070    -4.0036980403     0.5401982084
   52      H       1.6104244690    -3.5702334511    -1.1724524405
   53      H      -0.0908178753     1.3316515984     0.6095274311
   54      H       0.0544224628    -0.4441087613     0.8355846747
   55      H       0.2808272922     1.0475462619    -1.9085116036
   56      H       0.4212714461    -0.7356777268    -1.6864398038
 ----------------------------------------------------------------

    9   -1510.2938300918      2.27E-09 Convergence criterion met
 Total energy in the final basis set = -1510.29383009
 Final energy is   -1510.29383009176
 **  OPTIMIZATION CONVERGED  **

                    Orbital Energies (a.u.)
 --------------------------------------------------------------

 Alpha MOs
 -- Occupied --
-18.949 -18.933 -18.928 -18.922 -18.893 -18.889 -18.885 -18.874
-18.869 -18.865 -10.115 -10.099 -10.096 -10.093 -10.074 -10.065
-10.063 -10.061 -10.061 -10.058 -10.055 -10.044 -10.040 -10.038
-10.034 -10.032 -10.022 -10.021 -10.018 -10.017  -1.026  -1.010
 -1.008  -0.998  -0.972  -0.967  -0.951  -0.934  -0.934  -0.927
 -0.767  -0.760  -0.730  -0.722  -0.710  -0.704  -0.695  -0.664
 -0.650  -0.616  -0.596  -0.584  -0.547  -0.543  -0.540  -0.534
 -0.515  -0.508  -0.485  -0.475  -0.464  -0.459  -0.456  -0.442
 -0.433  -0.432  -0.428  -0.414  -0.411  -0.405  -0.401  -0.399
 -0.389  -0.378  -0.374  -0.366  -0.365  -0.358  -0.351  -0.346
 -0.344  -0.341  -0.335  -0.333  -0.329  -0.327  -0.324  -0.312
 -0.308  -0.306  -0.303  -0.300  -0.292  -0.287  -0.287  -0.276
 -0.270  -0.257  -0.253  -0.246  -0.242  -0.236  -0.231  -0.190
 -0.177  -0.175  -0.169  -0.161  -0.152  -0.150  -0.146  -0.144
 -0.140

          Ground-State Mulliken Net Atomic Charges

     Atom                 Charge (a.u.)
  ----------------------------------------
      1 O                    -0.220880
      2 C                     0.213020
      3 C                    -0.079610
      4 C                    -0.077742
      5 C                     0.220905
      6 O                    -0.168212
      7 C                    -0.050194
      8 C                    -0.055114
      9 O                    -0.173804
     10 C                     0.214472
     11 C                    -0.078566
     12 C                    -0.077504
     13 C                     0.213400
     14 O                    -0.221715
     15 O                    -0.168557
     16 O                    -0.177412
     17 O                    -0.205785
     18 C                    -0.145915
     19 C                     0.025942
     20 C                    -0.143931
     21 C                    -0.143952
     22 C                     0.024352
     23 O                    -0.186995
     24 H                     0.085406
     25 H                     0.083469
     26 H                     0.081913
     27 H                     0.077294
     28 H                     0.073735
     29 H                     0.077321
     30 H                     0.072954
     31 H                     0.088943
     32 O                    -0.209898
     33 C                    -0.129112
     34 C                     0.025490
     35 C                    -0.143775
     36 C                    -0.144084
     37 C                     0.024148
     38 O                    -0.186644
     39 H                     0.086871
     40 H                     0.087390
     41 H                     0.085224
     42 H                     0.085058
     43 H                     0.078718
     44 H                     0.073848
     45 H                     0.079127
     46 H                     0.073355
     47 H                     0.090715
     48 H                     0.090604
     49 H                     0.090333
     50 H                     0.104583
     51 H                     0.084996
     52 H                     0.084276
     53 H                     0.094888
     54 H                     0.099366
     55 H                     0.095843
     56 H                     0.101440
  ----------------------------------------
  Sum of atomic charges =     0.000000

                    Cartesian Multipole Moments
 -----------------------------------------------------------------
    Charge (ESU x 10^10)
                 0.0000
    Dipole Moment (Debye)
         X      -0.7219      Y       0.5200      Z      -1.6046
       Tot       1.8348
    Quadrupole Moments (Debye-Ang)
        XX    -132.7093     XY       0.1750     YY    -153.3113
        XZ       8.8171     YZ       3.2841     ZZ    -169.8773

 Total job time:  123.68s(wall), 5896.48s(cpu)
        *  Thank you very much for using Q-Chem.  Have a nice day.  *
