 Q-Chem 5.0, Q-Chem, Inc., Pleasanton, CA (2017)
 Q-Chem 5.0.1 for Intel X86 EM64T Linux

User input:
--------------------------------------------------------------
$molecule
0  1
O -3.94934 -3.66094 2.70899
C -3.26408 -4.56952 2.26188
C -3.36658 -6.02376 2.66595
C -2.61139 -6.45568 3.93362
C -1.98395 -5.35073 4.75428
O -1.16399 -4.59523 3.96541
C -0.07855 -4.0025 4.68634
C -0.54568 -3.55915 6.06886
O 0.5478 -2.96853 6.78884
C 0.21215 -1.9695 7.64231
C 1.39787 -1.41732 8.39717
C 2.72569 -2.14398 8.13805
C 2.75488 -3.05544 6.92763
O 3.17858 -2.75185 5.8218
O -2.42331 -4.30095 1.22816
O 2.65079 -4.38131 7.23699
O -0.91707 -1.51461 7.77679
C 2.87565 -5.44746 6.38665
C 1.76062 0.0275 8.01765
C 2.51967 0.68019 9.17133
C 3.83653 -0.0667 9.10062
C 3.60735 -0.91004 7.83986
O 2.76418 -0.11117 7.0439
H 1.12354 -1.46768 9.47523
H 3.10458 -2.71098 9.01778
H 0.87993 0.64333 7.73241
H 2.69666 1.7417 8.8846
H 2.00947 0.6482 10.15808
H 4.65036 0.6742 8.93706
H 4.07081 -0.70368 9.98091
H 4.58314 -1.19172 7.38546
O -2.66496 -4.89299 5.66666
C -2.2161 -3.04325 0.70174
C -4.80359 -6.44265 3.02998
C -4.96896 -7.95135 2.85236
C -4.15957 -8.46411 4.02514
C -3.7696 -7.14141 4.69392
O -4.86215 -6.29465 4.42753
H -3.0269 -6.61836 1.78704
H -1.79338 -7.17703 3.71325
H -1.81149 -2.36475 1.48322
H -5.57823 -5.89995 2.44486
H -6.04192 -8.18965 3.03186
H -4.66735 -8.3451 1.85794
H -4.83578 -9.04684 4.68966
H -3.27004 -9.07508 3.75907
H -3.52887 -7.31205 5.76645
H -3.16821 -2.63258 0.30291
H -1.48154 -3.11211 -0.12658
H 1.96116 -6.07345 6.33851
H 3.70209 -6.06587 6.79294
H 3.14746 -5.12661 5.35872
H -1.39707 -2.85225 5.93241
H -0.79246 -4.42661 6.71595
H 0.29869 -3.13187 4.10956
H 0.74168 -4.73945 4.7826
$end

$opt
CONSTRAINT
tors           1           2           3           4     -83.516
tors           3           4           5           6     -54.557
tors           4           5           6           7    -151.039
tors           5           6           7           8     -37.771
tors           6           7           8           9    +179.851
tors           7           8           9          10    +147.253
tors           8           9          10          11    +178.352
tors           9          10          11          12      -4.124
tors          11          12          13          14     +96.421
ENDCONSTRAINT
$end

$rem
JOBTYPE                   OPT
METHOD                    B3LYP
DFT_D                     d3_op
BASIS                     STO-3G
GEOM_OPT_MAX_CYCLES       100
GEOM_OPT_TOL_GRADIENT     300
GEOM_OPT_TOL_DISPLACEMENT 1200
GEOM_OPT_TOL_ENERGY       100
SYMMETRY                  False
THRESH                    12
SCF_CONVERGENCE           8
MAX_SUB_FILE_NUM          128
MEM_STATIC                400
MEM_TOTAL                 4000
$end
--------------------------------------------------------------

   15   -1510.1150195294      6.94E-09 Convergence criterion met
 Total energy in the final basis set = -1510.11501953
   14   -1510.1890144282      6.30E-09 Convergence criterion met
 Total energy in the final basis set = -1510.18901443
   14   -1510.2294347294      2.99E-09 Convergence criterion met
 Total energy in the final basis set = -1510.22943473
   14   -1510.2511177937      9.81E-09 Convergence criterion met
 Total energy in the final basis set = -1510.25111779
   14   -1510.2607252637      7.44E-09 Convergence criterion met
 Total energy in the final basis set = -1510.26072526
   14   -1510.2662384654      3.97E-09 Convergence criterion met
 Total energy in the final basis set = -1510.26623847
   13   -1510.2693541700      4.20E-09 Convergence criterion met
 Total energy in the final basis set = -1510.26935417
   13   -1510.2711029322      2.16E-09 Convergence criterion met
   12   -1510.2721089882      2.62E-09 Convergence criterion met
 Total energy in the final basis set = -1510.27210899
   10   -1510.2721326830      7.97E-09 Convergence criterion met
 Total energy in the final basis set = -1510.27213268
   11   -1510.2721411842      4.12E-09 Convergence criterion met
 Total energy in the final basis set = -1510.27214118
    9   -1510.2721504080      8.68E-09 Convergence criterion met
 Total energy in the final basis set = -1510.27215041
    9   -1510.2721541184      6.71E-09 Convergence criterion met
 Total energy in the final basis set = -1510.27215412
    9   -1510.2721564363      5.78E-09 Convergence criterion met
 Total energy in the final basis set = -1510.27215644

             Standard Nuclear Orientation (Angstroms)
    I     Atom           X                Y                Z
 ----------------------------------------------------------------
    1      O      -3.6589835564     2.2254857383     0.8702990618
    2      C      -3.8479632490     1.6735680002    -0.2347962530
    3      C      -4.6659545739     0.3693278817    -0.5301262249
    4      C      -3.8431168904    -0.9729100493    -0.3001164415
    5      C      -2.4205575260    -0.7684765932     0.3457352754
    6      O      -1.7095304140     0.1693886556    -0.4703179780
    7      C      -0.2321555919     0.0349010661    -0.4928964344
    8      C       0.5043156201    -0.3516493216     0.8415534580
    9      O       1.9403015284    -0.4041131722     0.4737800687
   10      C       2.7833565461    -0.0028854483     1.5498651143
   11      C       4.2945910310    -0.1111959402     1.1374731221
   12      C       4.6591509594    -0.7123817930    -0.2883986867
   13      C       3.4635081346    -1.1582791888    -1.2049464570
   14      O       2.9151839416    -0.5053346752    -2.1192981506
   15      O      -3.3836716682     2.1953711905    -1.4867741687
   16      O       3.1602356914    -2.5282197498    -0.8891708777
   17      O       2.3617574391     0.4012723032     2.6557994586
   18      C       2.0199151308    -3.0004018770    -1.7051732425
   19      C       4.9344377235     1.3433441770     1.0179731941
   20      C       6.5042603168     1.2112379169     1.1246846128
   21      C       6.8572975271     0.6270685263    -0.2932973454
   22      C       5.4224895206     0.5186281471    -0.9415641088
   23      O       4.7050455255     1.6962623573    -0.3997493508
   24      H       4.7970318128    -0.6879239632     1.9356525091
   25      H       5.3231264938    -1.5865346997    -0.1639338502
   26      H       4.4764153679     2.0944960153     1.6907445487
   27      H       6.9628700029     2.2005878528     1.2808749899
   28      H       6.8091674571     0.5467594950     1.9487225871
   29      H       7.4891324470     1.3207096164    -0.8705456859
   30      H       7.3636468902    -0.3498342960    -0.2385629240
   31      H       5.3934357550     0.5292373327    -2.0482534814
   32      O      -1.9751764778    -1.3778130374     1.3409051786
   33      C      -2.5362182443     3.3856252917    -1.2503603085
   34      C      -5.8711378890     0.1528317540     0.4820434738
   35      C      -6.8839100469    -0.8613435405    -0.1802847995
   36      C      -6.0866806400    -2.2125134918    -0.0474420113
   37      C      -4.7903582284    -1.7308370267     0.7163699234
   38      O      -5.2751904422    -0.6329107920     1.5854481826
   39      H      -5.0199254795     0.4239400445    -1.5746953470
   40      H      -3.7060522005    -1.5221895643    -1.2501330284
   41      H      -1.6289909313     3.1242699541    -0.6682022653
   42      H      -6.3169932453     1.0883434024     0.8716035219
   43      H      -7.8248808684    -0.8918950204     0.3917231237
   44      H      -7.1132795411    -0.6015404281    -1.2260275727
   45      H      -6.6389187831    -2.9512927211     0.5546439991
   46      H      -5.8472440386    -2.6621491542    -1.0244716189
   47      H      -4.2705722764    -2.4990330920     1.3214785651
   48      H      -3.0865649318     4.1802854667    -0.7062151648
   49      H      -2.2401076193     3.7554290923    -2.2492390866
   50      H       1.1537243803    -3.2043338733    -1.0440820463
   51      H       2.3120619145    -3.9363447955    -2.2198605964
   52      H       1.7521435628    -2.2221403482    -2.4490877738
   53      H       0.3417250042     0.3987678084     1.6440228810
   54      H       0.1617760779    -1.3403813196     1.2101023946
   55      H       0.1439813696     1.0185968148    -0.8430757775
   56      H       0.0377763219    -0.7215104014    -1.2640377589
 ----------------------------------------------------------------

    9   -1510.2721569032      3.21E-09 Convergence criterion met
 Total energy in the final basis set = -1510.27215690
 Final energy is   -1510.27215690322
 **  OPTIMIZATION CONVERGED  **

                    Orbital Energies (a.u.)
 --------------------------------------------------------------

 Alpha MOs
 -- Occupied --
-18.943 -18.938 -18.928 -18.925 -18.890 -18.889 -18.886 -18.878
-18.868 -18.867 -10.110 -10.106 -10.099 -10.094 -10.080 -10.072
-10.062 -10.059 -10.059 -10.058 -10.057 -10.056 -10.042 -10.040
-10.037 -10.035 -10.021 -10.020 -10.020 -10.019  -1.021  -1.016
 -1.003  -1.003  -0.972  -0.969  -0.948  -0.941  -0.930  -0.930
 -0.765  -0.762  -0.730  -0.723  -0.711  -0.705  -0.700  -0.660
 -0.659  -0.619  -0.598  -0.589  -0.546  -0.544  -0.539  -0.537
 -0.515  -0.510  -0.488  -0.471  -0.459  -0.459  -0.456  -0.444
 -0.441  -0.431  -0.429  -0.412  -0.410  -0.409  -0.407  -0.403
 -0.393  -0.384  -0.378  -0.368  -0.367  -0.357  -0.352  -0.348
 -0.345  -0.339  -0.335  -0.334  -0.330  -0.329  -0.326  -0.313
 -0.311  -0.307  -0.306  -0.300  -0.299  -0.296  -0.286  -0.276
 -0.272  -0.250  -0.247  -0.245  -0.240  -0.236  -0.233  -0.187
 -0.180  -0.170  -0.168  -0.160  -0.159  -0.150  -0.146  -0.146
 -0.143

          Ground-State Mulliken Net Atomic Charges

     Atom                 Charge (a.u.)
  ----------------------------------------
      1 O                    -0.214346
      2 C                     0.210801
      3 C                    -0.079710
      4 C                    -0.076398
      5 C                     0.216385
      6 O                    -0.175501
      7 C                    -0.047049
      8 C                    -0.054284
      9 O                    -0.172346
     10 C                     0.212935
     11 C                    -0.077876
     12 C                    -0.080243
     13 C                     0.222101
     14 O                    -0.221730
     15 O                    -0.168404
     16 O                    -0.174636
     17 O                    -0.212612
     18 C                    -0.136451
     19 C                     0.025199
     20 C                    -0.143670
     21 C                    -0.144321
     22 C                     0.025378
     23 O                    -0.188939
     24 H                     0.087224
     25 H                     0.085245
     26 H                     0.086323
     27 H                     0.078735
     28 H                     0.074363
     29 H                     0.078304
     30 H                     0.073594
     31 H                     0.087288
     32 O                    -0.204023
     33 C                    -0.127626
     34 C                     0.025320
     35 C                    -0.143389
     36 C                    -0.144719
     37 C                     0.023452
     38 O                    -0.187086
     39 H                     0.085290
     40 H                     0.084551
     41 H                     0.087560
     42 H                     0.085971
     43 H                     0.078176
     44 H                     0.073191
     45 H                     0.078284
     46 H                     0.072279
     47 H                     0.089325
     48 H                     0.088520
     49 H                     0.089102
     50 H                     0.080349
     51 H                     0.084007
     52 H                     0.098178
     53 H                     0.102140
     54 H                     0.102567
     55 H                     0.096321
     56 H                     0.086902
  ----------------------------------------
  Sum of atomic charges =    -0.000000

                    Cartesian Multipole Moments
 -----------------------------------------------------------------
    Charge (ESU x 10^10)
                 0.0000
    Dipole Moment (Debye)
         X       0.8223      Y      -1.7489      Z      -2.6442
       Tot       3.2751
    Quadrupole Moments (Debye-Ang)
        XX    -138.1174     XY       0.8276     YY    -154.9964
        XZ      12.6027     YZ       2.0666     ZZ    -170.5298

 Total job time:  55.51s(wall), 2640.69s(cpu)
        *  Thank you very much for using Q-Chem.  Have a nice day.  *
