 Q-Chem 5.0, Q-Chem, Inc., Pleasanton, CA (2017)
 Q-Chem 5.0.1 for Intel X86 EM64T Linux

User input:
--------------------------------------------------------------
$molecule
0  1
O -3.2088132713 2.2881162938 0.5064890177
C -3.6242971526 1.6325607337 -0.4730261178
C -4.6501414732 0.4468392551 -0.4718726061
C -3.987144901 -0.9783787864 -0.2279878016
C -2.4697998807 -0.911720761 0.1903104345
O -1.7748918109 -0.2689325798 -0.8791647123
C -0.2910433633 -0.3082224059 -0.8105048249
C 0.3645796259 -0.1208392644 0.605014947
O 1.8254678298 -0.2087131252 0.3652920238
C 2.5624725568 0.4522899125 1.3908018393
C 4.1069159024 0.2549851956 1.1924031342
C 4.6295579574 -0.7683307842 0.094033294
C 3.5533757961 -1.4008497527 -0.859746163
O 3.1081941834 -0.9377420219 -1.93208796
O -3.276550297 1.9139113104 -1.834915986
O 3.1980945646 -2.6851763108 -0.3196133355
O 2.035780926 1.1096685139 2.31556248
C 2.1694062446 -3.331411986 -1.1642758218
C 4.8031321971 1.6055532845 0.7040929682
C 6.324565473 1.5546147538 1.1202324781
C 6.8797619419 0.4984919973 0.0941315763
C 5.583735508 0.1805672562 -0.7508216645
O 4.8446301297 1.464512815 -0.7668101971
H 4.5033958853 -0.0307272902 2.1840766523
H 5.1797794451 -1.595559124 0.5765390801
H 4.2626958605 2.5268923234 0.9966344894
H 6.7925162197 2.541599551 0.9763383016
H 6.4627961205 1.2472723618 2.1689783794
H 7.6642815378 0.9300082366 -0.5472521828
H 7.2810348045 -0.401479639 0.5867246894
H 5.7651786683 -0.1679039697 -1.7858503199
O -1.9683929177 -1.4137252012 1.2193695161
C -2.2727212912 3.0005904764 -1.8848095513
C -5.6732270728 0.5105898 0.7415120935
C -6.9214785978 -0.379658231 0.3636200958
C -6.3100959714 -1.8242398803 0.5008100415
C -4.846600868 -1.4955653145 0.9954814852
O -5.0109618249 -0.2692231488 1.8112362132
H -5.1751681801 0.4593498438 -1.4432637463
H -4.0756468212 -1.620060723 -1.1235970019
H -1.3403141916 2.7175372865 -1.3551895359
H -5.9038773612 1.534148792 1.0948737488
H -7.7395006296 -0.2188132103 1.0836939588
H -7.2953011069 -0.1671187757 -0.6507437907
H -6.8472297743 -2.4212881185 1.2546619977
H -6.3098139641 -2.3775918516 -0.4520602653
H -4.3474931365 -2.2870949951 1.5874825089
H -2.6601286294 3.9380940097 -1.4358390536
H -2.0527042065 3.1658383932 -2.95551003
H 1.2317036859 -3.4374844762 -0.5827260585
H 2.5281694102 -4.3365788377 -1.4601784236
H 1.9892075727 -2.708877331 -2.064812584
H 0.0993428414 0.8609643967 1.051429776
H 0.0157076792 -0.9233969659 1.2878754065
H 0.052597808 0.4963045081 -1.4924361227
H 0.0570714961 -1.2790495312 -1.2274765781
$end

$rem
JOBTYPE                   OPT
METHOD                    B3LYP
DFT_D                     d3_op
BASIS                     STO-3G
GEOM_OPT_MAX_CYCLES       100
GEOM_OPT_TOL_GRADIENT     300
GEOM_OPT_TOL_DISPLACEMENT 1200
GEOM_OPT_TOL_ENERGY       100
SYMMETRY                  False
THRESH                    12
SCF_CONVERGENCE           8
MAX_SUB_FILE_NUM          128
MEM_STATIC                400
MEM_TOTAL                 4000
$end
--------------------------------------------------------------

   16   -1510.2754042666      5.26E-09 Convergence criterion met
 Total energy in the final basis set = -1510.27540427
   14   -1510.2783380016      7.33E-09 Convergence criterion met
 Total energy in the final basis set = -1510.27833800
   14   -1510.2811332670      9.09E-09 Convergence criterion met
 Total energy in the final basis set = -1510.28113327
   14   -1510.2831632333      7.73E-09 Convergence criterion met
 Total energy in the final basis set = -1510.28316323
   13   -1510.2845036369      8.00E-09 Convergence criterion met
 Total energy in the final basis set = -1510.28450364
   14   -1510.2856707684      4.23E-09 Convergence criterion met
 Total energy in the final basis set = -1510.28567077
   14   -1510.2859201390      6.57E-09 Convergence criterion met
 Total energy in the final basis set = -1510.28592014
   13   -1510.2867726233      6.24E-09 Convergence criterion met
   12   -1510.2937500826      6.28E-09 Convergence criterion met
 Total energy in the final basis set = -1510.29375008
   11   -1510.2938580385      9.36E-09 Convergence criterion met
 Total energy in the final basis set = -1510.29385804
   12   -1510.2938500297      3.49E-09 Convergence criterion met
 Total energy in the final basis set = -1510.29385003
   11   -1510.2938619470      9.84E-09 Convergence criterion met
 Total energy in the final basis set = -1510.29386195
   11   -1510.2938664106      4.78E-09 Convergence criterion met
 Total energy in the final basis set = -1510.29386641
   11   -1510.2938651251      5.10E-09 Convergence criterion met
 Total energy in the final basis set = -1510.29386513

             Standard Nuclear Orientation (Angstroms)
    I     Atom           X                Y                Z
 ----------------------------------------------------------------
    1      O      -2.3889212358     1.7615498683     0.7172344191
    2      C      -3.1176633391     1.5994648443    -0.2862133184
    3      C      -4.2231116933     0.5077853993    -0.5134497003
    4      C      -3.6601028476    -0.9508001183    -0.7968844265
    5      C      -2.0965776748    -1.0695699285    -0.7167069171
    6      O      -1.5191068401     0.0195111477    -1.4328285297
    7      C      -0.0465274312     0.0720992765    -1.2560379183
    8      C       0.3510949105     0.4737975671     0.2107529262
    9      O       1.8263177823     0.5712873698     0.1849902780
   10      C       2.4014323924     0.3193707399     1.4735334954
   11      C       3.9462966027     0.2025001274     1.2494189725
   12      C       4.3028975533    -0.8710500501     0.1336261071
   13      C       3.0456977295    -1.6249699220    -0.4403386130
   14      O       2.6560595060    -1.6826468539    -1.6273609346
   15      O      -3.1245257117     2.4706006890    -1.4248209214
   16      O       2.4338145309    -2.3195830413     0.6497931706
   17      O       1.7536148549     0.2043321935     2.5341202260
   18      C       1.3050592831    -3.1627844559     0.1824945401
   19      C       4.5480736623     1.5161136933     0.5839611273
   20      C       6.1247197713     1.4437092358     0.6754860511
   21      C       6.4489594327     0.3969954723    -0.4552565297
   22      C       4.9967604800     0.0388237728    -0.9604280990
   23      O       4.2720551605     1.3272031691    -0.8572211484
   24      H       4.4249162933    -0.0309217054     2.2160164065
   25      H       5.0004071122    -1.6299971369     0.5335602193
   26      H       4.0981492851     2.4613961482     0.9448202533
   27      H       6.5679494675     2.4277465485     0.4548752154
   28      H       6.4674870509     1.1164436716     1.6701875210
   29      H       7.0384810532     0.8505031639    -1.2679813696
   30      H       6.9894479222    -0.4853940050    -0.0767740230
   31      H       4.9255875043    -0.3621730826    -1.9902533406
   32      O      -1.4510736047    -1.9684053320    -0.1311054104
   33      C      -2.0765477457     3.5058333055    -1.2775640456
   34      C      -5.0682155399     0.2372739217     0.8061622189
   35      C      -6.4017302864    -0.5049171890     0.3987938627
   36      C      -5.8615166297    -1.9499760480     0.0846864096
   37      C      -4.3225719764    -1.7715759786     0.3842798852
   38      O      -4.2915114350    -0.8083991062     1.5097893335
   39      H      -4.8619944493     0.8471714717    -1.3474351908
   40      H      -3.9858178692    -1.3119649865    -1.7903856862
   41      H      -1.0609383042     3.0635775794    -1.3355876404
   42      H      -5.1985140130     1.1238602152     1.4564172004
   43      H      -7.1081020641    -0.5141259132     1.2441230934
   44      H      -6.8941828665    -0.0354138737    -0.4679124205
   45      H      -6.2999848596    -2.7011463253     0.7605948612
   46      H      -6.0494942324    -2.2592540657    -0.9560672071
   47      H      -3.7677794570    -2.6934586115     0.6467351764
   48      H      -2.1692542296     4.0494736294    -0.3154220336
   49      H      -2.2175954728     4.2086830418    -2.1189971079
   50      H       0.3557303956    -2.5850526889     0.0851032877
   51      H       1.1735446920    -3.9457652710     0.9517291015
   52      H       1.5406511089    -3.6339549457    -0.7920750052
   53      H      -0.1304650530     1.4375943971     0.4896975631
   54      H       0.0184034618    -0.2967180259     0.9371814105
   55      H       0.3018309388     0.8506730323    -1.9636705038
   56      H       0.4410201059    -0.8909843423    -1.5244787984
 ----------------------------------------------------------------

    9   -1510.2938654428      6.06E-09 Convergence criterion met
 Total energy in the final basis set = -1510.29386544
 Final energy is   -1510.29386544278
 **  OPTIMIZATION CONVERGED  **

                    Orbital Energies (a.u.)
 --------------------------------------------------------------

 Alpha MOs
 -- Occupied --
-18.950 -18.932 -18.928 -18.923 -18.893 -18.889 -18.885 -18.874
-18.869 -18.866 -10.115 -10.099 -10.096 -10.094 -10.073 -10.063
-10.063 -10.061 -10.060 -10.058 -10.055 -10.044 -10.040 -10.038
-10.034 -10.033 -10.022 -10.021 -10.018 -10.017  -1.026  -1.010
 -1.007  -0.999  -0.972  -0.967  -0.951  -0.934  -0.933  -0.928
 -0.766  -0.760  -0.729  -0.722  -0.709  -0.704  -0.695  -0.663
 -0.650  -0.615  -0.596  -0.583  -0.546  -0.543  -0.539  -0.534
 -0.515  -0.508  -0.485  -0.476  -0.464  -0.459  -0.456  -0.442
 -0.433  -0.432  -0.428  -0.414  -0.410  -0.405  -0.401  -0.399
 -0.388  -0.378  -0.374  -0.366  -0.365  -0.358  -0.351  -0.346
 -0.344  -0.342  -0.335  -0.333  -0.329  -0.326  -0.324  -0.312
 -0.308  -0.306  -0.303  -0.300  -0.292  -0.287  -0.286  -0.276
 -0.270  -0.256  -0.253  -0.246  -0.242  -0.236  -0.231  -0.190
 -0.177  -0.175  -0.168  -0.161  -0.153  -0.150  -0.146  -0.144
 -0.140

          Ground-State Mulliken Net Atomic Charges

     Atom                 Charge (a.u.)
  ----------------------------------------
      1 O                    -0.221281
      2 C                     0.213334
      3 C                    -0.079796
      4 C                    -0.077582
      5 C                     0.221163
      6 O                    -0.167916
      7 C                    -0.050909
      8 C                    -0.056252
      9 O                    -0.173901
     10 C                     0.214004
     11 C                    -0.078294
     12 C                    -0.077426
     13 C                     0.212861
     14 O                    -0.221547
     15 O                    -0.168485
     16 O                    -0.176713
     17 O                    -0.205728
     18 C                    -0.146872
     19 C                     0.025943
     20 C                    -0.144000
     21 C                    -0.143871
     22 C                     0.024339
     23 O                    -0.186657
     24 H                     0.085505
     25 H                     0.083628
     26 H                     0.082154
     27 H                     0.077308
     28 H                     0.073713
     29 H                     0.077272
     30 H                     0.072879
     31 H                     0.088757
     32 O                    -0.210090
     33 C                    -0.128812
     34 C                     0.025536
     35 C                    -0.143690
     36 C                    -0.144217
     37 C                     0.023937
     38 O                    -0.186817
     39 H                     0.086788
     40 H                     0.087392
     41 H                     0.085671
     42 H                     0.085179
     43 H                     0.078739
     44 H                     0.073790
     45 H                     0.079114
     46 H                     0.073337
     47 H                     0.090915
     48 H                     0.090074
     49 H                     0.090319
     50 H                     0.105818
     51 H                     0.084847
     52 H                     0.083928
     53 H                     0.095368
     54 H                     0.099503
     55 H                     0.095547
     56 H                     0.102190
  ----------------------------------------
  Sum of atomic charges =     0.000000

                    Cartesian Multipole Moments
 -----------------------------------------------------------------
    Charge (ESU x 10^10)
                 0.0000
    Dipole Moment (Debye)
         X      -0.6775      Y       0.2447      Z      -1.6883
       Tot       1.8356
    Quadrupole Moments (Debye-Ang)
        XX    -132.6633     XY       0.8426     YY    -152.8981
        XZ       8.7540     YZ       1.3590     ZZ    -170.1660

 Total job time:  95.27s(wall), 4540.98s(cpu)
        *  Thank you very much for using Q-Chem.  Have a nice day.  *
