 Q-Chem 5.0, Q-Chem, Inc., Pleasanton, CA (2017)
 Q-Chem 5.0.1 for Intel X86 EM64T Linux

User input:
--------------------------------------------------------------
$molecule
0  1
O -3.94934 -3.66094 2.70899
C -3.26408 -4.56952 2.26188
C -3.36658 -6.02376 2.66595
C -2.54508 -6.47383 3.88514
C -1.85207 -5.38307 4.67133
O -0.96947 -4.72044 3.86674
C -0.10707 -3.83362 4.58721
C -0.88506 -3.12593 5.69176
O -0.01446 -2.24035 6.41335
C -0.62779 -1.21685 7.05787
C 0.32484 -0.3881 7.88632
C 1.73935 -0.97031 8.02222
C 2.09657 -2.07316 7.0461
O 2.55041 -1.90636 5.92326
O -2.27132 -4.26882 1.38403
O 2.18932 -3.31167 7.60819
O -1.80826 -0.92113 6.92018
C 2.68504 -4.4533 7.00727
C 0.62655 1.00182 7.30303
C 1.07256 1.93753 8.42511
C 2.43826 1.36248 8.74782
C 2.55118 0.28984 7.65712
O 1.81873 0.82382 6.57848
H -0.15207 -0.28614 8.88757
H 1.95298 -1.33307 9.05282
H -0.22875 1.44043 6.74429
H 1.20939 2.94531 7.97114
H 0.3762 2.01694 9.28748
H 3.19851 2.16075 8.59706
H 2.54164 0.9228 9.76347
H 3.61929 0.05439 7.45325
O -1.54147 -5.71156 5.81286
C -1.98631 -2.99433 0.94106
C -4.79324 -6.36502 3.14793
C -5.05058 -7.86423 3.01018
C -4.18362 -8.3983 4.12711
C -3.68278 -7.08567 4.73971
O -4.74414 -6.18787 4.53992
H -3.16863 -6.62767 1.75169
H -1.77569 -7.23649 3.62886
H -1.70764 -2.34526 1.79891
H -5.58511 -5.79725 2.61092
H -6.11791 -8.04118 3.27472
H -4.84691 -8.28977 2.00405
H -4.8362 -8.9391 4.84845
H -3.34523 -9.05458 3.80798
H -3.39566 -7.26517 5.79833
H -2.86619 -2.56603 0.41503
H -1.13269 -3.03744 0.23408
H 1.89803 -5.23514 7.0071
H 3.55006 -4.82435 7.59433
H 3.01853 -4.27852 5.96241
H -1.6549 -2.54122 5.13619
H -1.42597 -3.67032 6.48261
H 0.34915 -3.10526 3.88363
H 0.70672 -4.42704 5.04824
$end

$opt
CONSTRAINT
tors           1           2           3           4     -87.041
tors           3           4           5           6     -60.438
tors           4           5           6           7    -169.659
tors           5           6           7           8     -39.421
tors           6           7           8           9    +179.851
tors           7           8           9          10    +156.528
tors           8           9          10          11    +175.391
tors           9          10          11          12      -9.003
tors          11          12          13          14     +86.571
ENDCONSTRAINT
$end

$rem
JOBTYPE                   OPT
METHOD                    B3LYP
DFT_D                     d3_op
BASIS                     STO-3G
GEOM_OPT_MAX_CYCLES       100
GEOM_OPT_TOL_GRADIENT     300
GEOM_OPT_TOL_DISPLACEMENT 1200
GEOM_OPT_TOL_ENERGY       100
SYMMETRY                  False
THRESH                    12
SCF_CONVERGENCE           8
MAX_SUB_FILE_NUM          128
MEM_STATIC                400
MEM_TOTAL                 4000
$end
--------------------------------------------------------------

   16   -1510.1149625204      3.95E-09 Convergence criterion met
 Total energy in the final basis set = -1510.11496252
   15   -1510.1886526595      1.54E-09 Convergence criterion met
 Total energy in the final basis set = -1510.18865266
   14   -1510.2288794927      3.74E-09 Convergence criterion met
 Total energy in the final basis set = -1510.22887949
   15   -1510.2519535013      1.34E-09 Convergence criterion met
 Total energy in the final basis set = -1510.25195350
   14   -1510.2634042903      5.07E-09 Convergence criterion met
 Total energy in the final basis set = -1510.26340429
   13   -1510.2695645808      8.69E-09 Convergence criterion met
 Total energy in the final basis set = -1510.26956458
   13   -1510.2730154596      3.07E-09 Convergence criterion met
 Total energy in the final basis set = -1510.27301546
   13   -1510.2748192592      4.63E-09 Convergence criterion met
   11   -1510.2753840067      4.30E-09 Convergence criterion met
 Total energy in the final basis set = -1510.27538401
   11   -1510.2754132708      7.05E-09 Convergence criterion met
 Total energy in the final basis set = -1510.27541327
   11   -1510.2754268823      5.96E-09 Convergence criterion met
 Total energy in the final basis set = -1510.27542688
    9   -1510.2754310484      7.19E-09 Convergence criterion met
 Total energy in the final basis set = -1510.27543105
    9   -1510.2754335378      4.38E-09 Convergence criterion met
 Total energy in the final basis set = -1510.27543354
    9   -1510.2754353587      6.86E-09 Convergence criterion met
 Total energy in the final basis set = -1510.27543536

             Standard Nuclear Orientation (Angstroms)
    I     Atom           X                Y                Z
 ----------------------------------------------------------------
    1      O      -3.2088132713     2.2881162938     0.5064890177
    2      C      -3.6242971526     1.6325607337    -0.4730261178
    3      C      -4.6501414732     0.4468392551    -0.4718726061
    4      C      -3.9871449010    -0.9783787864    -0.2279878016
    5      C      -2.4697998807    -0.9117207610     0.1903104345
    6      O      -1.7748918109    -0.2689325798    -0.8791647123
    7      C      -0.2910433633    -0.3082224059    -0.8105048249
    8      C       0.3645796259    -0.1208392644     0.6050149470
    9      O       1.8254678298    -0.2087131252     0.3652920238
   10      C       2.5624725568     0.4522899125     1.3908018393
   11      C       4.1069159024     0.2549851956     1.1924031342
   12      C       4.6295579574    -0.7683307842     0.0940332940
   13      C       3.5533757961    -1.4008497527    -0.8597461630
   14      O       3.1081941834    -0.9377420219    -1.9320879600
   15      O      -3.2765502970     1.9139113104    -1.8349159860
   16      O       3.1980945646    -2.6851763108    -0.3196133355
   17      O       2.0357809260     1.1096685139     2.3155624800
   18      C       2.1694062446    -3.3314119860    -1.1642758218
   19      C       4.8031321971     1.6055532845     0.7040929682
   20      C       6.3245654730     1.5546147538     1.1202324781
   21      C       6.8797619419     0.4984919973     0.0941315763
   22      C       5.5837355080     0.1805672562    -0.7508216645
   23      O       4.8446301297     1.4645128150    -0.7668101971
   24      H       4.5033958853    -0.0307272902     2.1840766523
   25      H       5.1797794451    -1.5955591240     0.5765390801
   26      H       4.2626958605     2.5268923234     0.9966344894
   27      H       6.7925162197     2.5415995510     0.9763383016
   28      H       6.4627961205     1.2472723618     2.1689783794
   29      H       7.6642815378     0.9300082366    -0.5472521828
   30      H       7.2810348045    -0.4014796390     0.5867246894
   31      H       5.7651786683    -0.1679039697    -1.7858503199
   32      O      -1.9683929177    -1.4137252012     1.2193695161
   33      C      -2.2727212912     3.0005904764    -1.8848095513
   34      C      -5.6732270728     0.5105898000     0.7415120935
   35      C      -6.9214785978    -0.3796582310     0.3636200958
   36      C      -6.3100959714    -1.8242398803     0.5008100415
   37      C      -4.8466008680    -1.4955653145     0.9954814852
   38      O      -5.0109618249    -0.2692231488     1.8112362132
   39      H      -5.1751681801     0.4593498438    -1.4432637463
   40      H      -4.0756468212    -1.6200607230    -1.1235970019
   41      H      -1.3403141916     2.7175372865    -1.3551895359
   42      H      -5.9038773612     1.5341487920     1.0948737488
   43      H      -7.7395006296    -0.2188132103     1.0836939588
   44      H      -7.2953011069    -0.1671187757    -0.6507437907
   45      H      -6.8472297743    -2.4212881185     1.2546619977
   46      H      -6.3098139641    -2.3775918516    -0.4520602653
   47      H      -4.3474931365    -2.2870949951     1.5874825089
   48      H      -2.6601286294     3.9380940097    -1.4358390536
   49      H      -2.0527042065     3.1658383932    -2.9555100300
   50      H       1.2317036859    -3.4374844762    -0.5827260585
   51      H       2.5281694102    -4.3365788377    -1.4601784236
   52      H       1.9892075727    -2.7088773310    -2.0648125840
   53      H       0.0993428414     0.8609643967     1.0514297760
   54      H       0.0157076792    -0.9233969659     1.2878754065
   55      H       0.0525978080     0.4963045081    -1.4924361227
   56      H       0.0570714961    -1.2790495312    -1.2274765781
 ----------------------------------------------------------------

    9   -1510.2754362013      4.97E-09 Convergence criterion met
 Total energy in the final basis set = -1510.27543620
 Final energy is   -1510.27543620131
 **  OPTIMIZATION CONVERGED  **

                    Orbital Energies (a.u.)
 --------------------------------------------------------------

 Alpha MOs
 -- Occupied --
-18.943 -18.940 -18.930 -18.925 -18.888 -18.887 -18.886 -18.875
-18.870 -18.867 -10.110 -10.103 -10.097 -10.096 -10.079 -10.068
-10.061 -10.061 -10.059 -10.058 -10.058 -10.056 -10.040 -10.040
-10.037 -10.036 -10.021 -10.020 -10.020 -10.019  -1.020  -1.015
 -1.006  -1.002  -0.971  -0.969  -0.948  -0.939  -0.932  -0.929
 -0.764  -0.762  -0.730  -0.722  -0.711  -0.705  -0.699  -0.660
 -0.659  -0.618  -0.597  -0.588  -0.546  -0.544  -0.538  -0.537
 -0.515  -0.510  -0.486  -0.470  -0.460  -0.458  -0.457  -0.444
 -0.441  -0.430  -0.430  -0.411  -0.410  -0.409  -0.407  -0.401
 -0.391  -0.383  -0.379  -0.368  -0.366  -0.356  -0.352  -0.349
 -0.347  -0.339  -0.334  -0.333  -0.331  -0.329  -0.326  -0.312
 -0.310  -0.307  -0.305  -0.300  -0.297  -0.293  -0.285  -0.276
 -0.271  -0.253  -0.250  -0.244  -0.240  -0.235  -0.233  -0.188
 -0.181  -0.173  -0.167  -0.158  -0.156  -0.149  -0.147  -0.145
 -0.143

          Ground-State Mulliken Net Atomic Charges

     Atom                 Charge (a.u.)
  ----------------------------------------
      1 O                    -0.214745
      2 C                     0.209063
      3 C                    -0.079746
      4 C                    -0.076458
      5 C                     0.215086
      6 O                    -0.170794
      7 C                    -0.048175
      8 C                    -0.058527
      9 O                    -0.172072
     10 C                     0.211176
     11 C                    -0.078682
     12 C                    -0.079745
     13 C                     0.220605
     14 O                    -0.218728
     15 O                    -0.167764
     16 O                    -0.174052
     17 O                    -0.212658
     18 C                    -0.136877
     19 C                     0.025587
     20 C                    -0.143119
     21 C                    -0.144909
     22 C                     0.026018
     23 O                    -0.187485
     24 H                     0.086898
     25 H                     0.085612
     26 H                     0.085703
     27 H                     0.078557
     28 H                     0.074585
     29 H                     0.078169
     30 H                     0.073611
     31 H                     0.085598
     32 O                    -0.207359
     33 C                    -0.127699
     34 C                     0.025021
     35 C                    -0.143243
     36 C                    -0.144794
     37 C                     0.023929
     38 O                    -0.187025
     39 H                     0.085554
     40 H                     0.085962
     41 H                     0.086649
     42 H                     0.086428
     43 H                     0.078239
     44 H                     0.073198
     45 H                     0.078376
     46 H                     0.072642
     47 H                     0.089381
     48 H                     0.088493
     49 H                     0.089882
     50 H                     0.081357
     51 H                     0.083984
     52 H                     0.098771
     53 H                     0.097964
     54 H                     0.108828
     55 H                     0.096394
     56 H                     0.087337
  ----------------------------------------
  Sum of atomic charges =     0.000000

                    Cartesian Multipole Moments
 -----------------------------------------------------------------
    Charge (ESU x 10^10)
                 0.0000
    Dipole Moment (Debye)
         X       0.1749      Y      -1.7446      Z      -1.9506
       Tot       2.6227
    Quadrupole Moments (Debye-Ang)
        XX    -135.3868     XY       1.1261     YY    -154.7561
        XZ      12.6114     YZ      -0.3666     ZZ    -170.1060

 Total job time:  53.01s(wall), 2518.79s(cpu)
        *  Thank you very much for using Q-Chem.  Have a nice day.  *
