 Q-Chem 5.0, Q-Chem, Inc., Pleasanton, CA (2017)
 Q-Chem 5.0.1 for Intel X86 EM64T Linux

User input:
--------------------------------------------------------------
$molecule
0  1
O -3.1589569799 -2.4160513171 -0.2984215561
C -3.5433383849 -1.6496476586 0.6107682585
C -4.5907016367 -0.4868704727 0.5095553794
C -3.978820389 0.9515551745 0.227800785
C -2.4585095559 0.969293719 -0.1879915432
O -1.7378420919 0.1802837733 0.7571542634
C -0.2560887801 0.2651795076 0.6787603144
C 0.3914895396 0.3195927077 -0.7525663833
O 1.8499797053 0.4028293968 -0.5019930668
C 2.6085514322 -0.1571357439 -1.5691708094
C 4.1474864315 -0.0306686066 -1.2791549748
C 4.6202251551 0.7314517596 0.0337899922
C 3.5016552732 1.3474429884 0.9501149974
O 2.9858046323 0.8436386931 1.9714136502
O -3.184681309 -1.7985516418 1.9918079276
O 3.2234728682 2.6717519894 0.4647930013
O 2.1033172855 -0.6957598462 -2.5784167738
C 2.1441805885 3.2941175245 1.2626770201
C 4.7633238925 -1.4770866617 -1.0177668577
C 6.3280239187 -1.4095122958 -1.2176460335
C 6.7728252267 -0.6752213243 0.1013284333
C 5.3768795224 -0.4374919625 0.7988583149
O 4.6003922379 -1.6476892713 0.4423171074
H 4.6010316096 0.4292655591 -2.1765114087
H 5.3084384173 1.5501551316 -0.2425167846
H 4.2513330359 -2.2900545989 -1.5689267058
H 6.7505392785 -2.4251047958 -1.2787697824
H 6.6064452778 -0.8567933533 -2.1290466755
H 7.4114904711 -1.3192335699 0.7266830638
H 7.3055809243 0.2689056198 -0.0948113154
H 5.4047838767 -0.3116356493 1.8984083969
O -1.974287964 1.6394993243 -1.1260812873
C -2.1967692888 -2.8905669252 2.1389301054
C -5.5804564093 -0.6370369713 -0.7254978685
C -6.8791031691 0.1990359698 -0.3994767097
C -6.3335440688 1.6679266418 -0.5543272753
C -4.8476728294 1.3997387833 -1.0171314345
O -4.9370544805 0.146659836 -1.8040029892
H -5.1472825408 -0.4709307424 1.4635512698
H -4.1033557968 1.6158889653 1.1029285025
H -1.2820570145 -2.697462006 1.5425555464
H -5.7489117299 -1.681000121 -1.0536017663
H -7.6686867762 -0.0166529549 -1.1368543738
H -7.2696764386 -0.0098091284 0.6091840745
H -6.8843102268 2.2251341032 -1.3285669588
H -6.375648438 2.2382339906 0.3875194391
H -4.3748488413 2.2002681579 -1.6187071863
H -2.6178203213 -3.8683461291 1.8261956543
H -1.9368572983 -2.9264968483 3.2128430792
H 1.2291881558 3.3829362556 0.6426346534
H 2.4722140742 4.3051061164 1.5726276707
H 1.9338898511 2.6677319379 2.15375003
H 0.1509249337 -0.5850357284 -1.3507735317
H 0.0222576993 1.2135977415 -1.2968572369
H 0.1142521906 -0.6295757865 1.2193661848
H 0.0769602913 1.164203557 1.2430123315
$end

$rem
JOBTYPE                   OPT
METHOD                    B3LYP
DFT_D                     d3_op
BASIS                     STO-3G
GEOM_OPT_MAX_CYCLES       100
GEOM_OPT_TOL_GRADIENT     300
GEOM_OPT_TOL_DISPLACEMENT 1200
GEOM_OPT_TOL_ENERGY       100
SYMMETRY                  False
THRESH                    12
SCF_CONVERGENCE           8
MAX_SUB_FILE_NUM          128
MEM_STATIC                400
MEM_TOTAL                 4000
$end
--------------------------------------------------------------

   16   -1510.2760539595      5.11E-09 Convergence criterion met
 Total energy in the final basis set = -1510.27605396
   14   -1510.2787006306      8.81E-09 Convergence criterion met
 Total energy in the final basis set = -1510.27870063
   14   -1510.2811192684      3.70E-09 Convergence criterion met
 Total energy in the final basis set = -1510.28111927
   14   -1510.2839387617      4.48E-09 Convergence criterion met
 Total energy in the final basis set = -1510.28393876
   15   -1510.2847942132      4.07E-09 Convergence criterion met
 Total energy in the final basis set = -1510.28479421
   14   -1510.2856258297      5.59E-09 Convergence criterion met
 Total energy in the final basis set = -1510.28562583
   14   -1510.2858697947      4.51E-09 Convergence criterion met
 Total energy in the final basis set = -1510.28586979
   13   -1510.2867791883      3.80E-09 Convergence criterion met
   12   -1510.2937592695      6.59E-09 Convergence criterion met
 Total energy in the final basis set = -1510.29375927
   12   -1510.2938067866      4.55E-09 Convergence criterion met
 Total energy in the final basis set = -1510.29380679
   12   -1510.2937866894      3.34E-09 Convergence criterion met
 Total energy in the final basis set = -1510.29378669
   11   -1510.2938103736      7.57E-09 Convergence criterion met
 Total energy in the final basis set = -1510.29381037
    9   -1510.2938122271      8.74E-09 Convergence criterion met
 Total energy in the final basis set = -1510.29381223
    9   -1510.2938136158      4.12E-09 Convergence criterion met
 Total energy in the final basis set = -1510.29381362

             Standard Nuclear Orientation (Angstroms)
    I     Atom           X                Y                Z
 ----------------------------------------------------------------
    1      O      -2.3719555718     1.6377219255     0.9309195292
    2      C      -3.1185448479     1.6105022653    -0.0719406355
    3      C      -4.2318014519     0.5606256327    -0.4242212746
    4      C      -3.6773060958    -0.8587987761    -0.8748273012
    5      C      -2.1138891327    -0.9878717070    -0.8226745725
    6      O      -1.5451150555     0.1725106361    -1.4268763214
    7      C      -0.0693529669     0.1975681468    -1.2748344914
    8      C       0.3598331662     0.4405708374     0.2166847712
    9      O       1.8350961439     0.5273528255     0.1728105562
   10      C       2.4224366165     0.2247975205     1.4447819031
   11      C       3.9654464600     0.1294640214     1.2042288289
   12      C       4.3233132482    -0.8674806925     0.0209189541
   13      C       3.0679127180    -1.5807806161    -0.6077355263
   14      O       2.6944024755    -1.5702882198    -1.8009450338
   15      O      -3.1395980089     2.6221970915    -1.0876453337
   16      O       2.4431340440    -2.3393332695     0.4325470179
   17      O       1.7836361999     0.0662767321     2.5052160965
   18      C       1.3175591591    -3.1483866335    -0.0980469994
   19      C       4.5558189515     1.4882469112     0.6227993446
   20      C       6.1324899021     1.4232790510     0.7139728397
   21      C       6.4670501024     0.4472371496    -0.4751072896
   22      C       5.0189362863     0.1129662192    -1.0091423068
   23      O       4.2847505126     1.3874554064    -0.8278469932
   24      H       4.4512597373    -0.1605947360     2.1516328688
   25      H       5.0195365798    -1.6517666374     0.3712565597
   26      H       4.0967104309     2.4048985849     1.0414443706
   27      H       6.5684065005     2.4220059559     0.5528028453
   28      H       6.4750759031     1.0404103470     1.6886232287
   29      H       7.0592102932     0.9502339047    -1.2560905986
   30      H       7.0088682000    -0.4538526801    -0.1460082234
   31      H       4.9545977379    -0.2225439422    -2.0625756523
   32      O      -1.4599337409    -1.9426280741    -0.3455062496
   33      C      -2.0840568785     3.6267095845    -0.8259937545
   34      C      -5.0821787714     0.1440594279     0.8532474135
   35      C      -6.4165800747    -0.5410030699     0.3579363955
   36      C      -5.8810328922    -1.9445964514    -0.1139114527
   37      C      -4.3420630614    -1.8064384951     0.2066496077
   38      O      -4.3112069258    -0.9781651960     1.4345756311
   39      H      -4.8664783114     0.9991614317    -1.2136550736
   40      H      -4.0105758217    -1.1011842631    -1.9011725851
   41      H      -1.0735233046     3.2020608685    -0.9961978924
   42      H      -5.2119659723     0.9505977719     1.6004891150
   43      H      -7.1289293623    -0.6416425439     1.1922189209
   44      H      -6.9004777273     0.0254659335    -0.4537603228
   45      H      -6.3242975673    -2.7644141078     0.4733192851
   46      H      -6.0674751570    -2.1347569141    -1.1830738987
   47      H      -3.7913063520    -2.7543999311     0.3645936475
   48      H      -2.1334277772     4.0119699683     0.2126771546
   49      H      -2.2586543291     4.4518381744    -1.5405193591
   50      H       0.3716868108    -2.5625159509    -0.1725156012
   51      H       1.1727830615    -3.9753502013     0.6211910979
   52      H       1.5634883251    -3.5611869571    -1.0963091688
   53      H      -0.1063978684     1.3730876032     0.6062290851
   54      H       0.0314298997    -0.3988798985     0.8643382377
   55      H       0.2731798244     1.0418071582    -1.9057178053
   56      H       0.3994226864    -0.7380334539    -1.6509888679
 ----------------------------------------------------------------

    9   -1510.2938137518      5.56E-09 Convergence criterion met
 Total energy in the final basis set = -1510.29381375
 Final energy is   -1510.29381375181
 **  OPTIMIZATION CONVERGED  **

                    Orbital Energies (a.u.)
 --------------------------------------------------------------

 Alpha MOs
 -- Occupied --
-18.949 -18.933 -18.928 -18.922 -18.893 -18.889 -18.885 -18.874
-18.869 -18.865 -10.115 -10.099 -10.096 -10.093 -10.074 -10.064
-10.063 -10.061 -10.061 -10.058 -10.054 -10.044 -10.040 -10.038
-10.034 -10.032 -10.022 -10.021 -10.018 -10.017  -1.026  -1.010
 -1.008  -0.998  -0.972  -0.967  -0.951  -0.934  -0.934  -0.927
 -0.767  -0.760  -0.730  -0.722  -0.710  -0.704  -0.695  -0.663
 -0.650  -0.616  -0.596  -0.584  -0.547  -0.543  -0.540  -0.534
 -0.515  -0.508  -0.485  -0.475  -0.464  -0.459  -0.456  -0.442
 -0.433  -0.432  -0.428  -0.414  -0.411  -0.405  -0.401  -0.399
 -0.389  -0.378  -0.374  -0.366  -0.365  -0.358  -0.351  -0.346
 -0.344  -0.341  -0.335  -0.333  -0.329  -0.327  -0.324  -0.312
 -0.308  -0.306  -0.303  -0.300  -0.292  -0.287  -0.287  -0.276
 -0.270  -0.257  -0.253  -0.246  -0.242  -0.236  -0.231  -0.190
 -0.177  -0.175  -0.169  -0.161  -0.152  -0.150  -0.146  -0.144
 -0.140

          Ground-State Mulliken Net Atomic Charges

     Atom                 Charge (a.u.)
  ----------------------------------------
      1 O                    -0.221017
      2 C                     0.213194
      3 C                    -0.079678
      4 C                    -0.077700
      5 C                     0.220862
      6 O                    -0.168153
      7 C                    -0.050198
      8 C                    -0.055454
      9 O                    -0.173845
     10 C                     0.214427
     11 C                    -0.078562
     12 C                    -0.077488
     13 C                     0.213322
     14 O                    -0.221661
     15 O                    -0.168539
     16 O                    -0.177340
     17 O                    -0.205784
     18 C                    -0.145998
     19 C                     0.025942
     20 C                    -0.143931
     21 C                    -0.143953
     22 C                     0.024351
     23 O                    -0.186958
     24 H                     0.085401
     25 H                     0.083492
     26 H                     0.081949
     27 H                     0.077286
     28 H                     0.073729
     29 H                     0.077304
     30 H                     0.072935
     31 H                     0.088912
     32 O                    -0.209908
     33 C                    -0.129151
     34 C                     0.025487
     35 C                    -0.143734
     36 C                    -0.144128
     37 C                     0.024114
     38 O                    -0.186715
     39 H                     0.086887
     40 H                     0.087412
     41 H                     0.085252
     42 H                     0.085113
     43 H                     0.078732
     44 H                     0.073831
     45 H                     0.079122
     46 H                     0.073343
     47 H                     0.090749
     48 H                     0.090698
     49 H                     0.090309
     50 H                     0.104625
     51 H                     0.084969
     52 H                     0.084341
     53 H                     0.095311
     54 H                     0.099278
     55 H                     0.095787
     56 H                     0.101428
  ----------------------------------------
  Sum of atomic charges =     0.000000

                    Cartesian Multipole Moments
 -----------------------------------------------------------------
    Charge (ESU x 10^10)
                 0.0000
    Dipole Moment (Debye)
         X      -0.7331      Y       0.4871      Z      -1.6071
       Tot       1.8323
    Quadrupole Moments (Debye-Ang)
        XX    -132.6421     XY       0.1326     YY    -153.1953
        XZ       8.7817     YZ       2.8171     ZZ    -170.0216

 Total job time:  91.03s(wall), 4336.74s(cpu)
        *  Thank you very much for using Q-Chem.  Have a nice day.  *
