 Q-Chem 5.0, Q-Chem, Inc., Pleasanton, CA (2017)
 Q-Chem 5.0.1 for Intel X86 EM64T Linux

User input:
--------------------------------------------------------------
$molecule
0  1
O -3.94934 -3.66094 2.70899
C -3.26408 -4.56952 2.26188
C -3.36658 -6.02376 2.66595
C -2.42805 -6.51069 3.78215
C -1.61694 -5.44946 4.49206
O -0.99068 -4.65366 3.57557
C -0.02181 -3.77668 4.15991
C -0.54026 -3.22931 5.48571
O 0.43689 -2.35308 6.06906
C -0.05865 -1.38023 6.8735
C 1.01801 -0.50683 7.47236
C 2.45556 -0.92658 7.13244
C 2.60422 -1.90649 5.98597
O 2.85433 -1.60872 4.82695
O -2.31919 -4.27684 1.32875
O 2.88246 -3.17863 6.39631
O -1.25112 -1.18673 7.07567
C 3.33179 -4.22243 5.60948
C 0.99689 0.944 6.96311
C 1.66583 1.85319 7.99197
C 3.11271 1.42563 7.84749
C 2.99437 0.4466 6.67235
O 1.92665 0.95688 5.90935
H 0.84842 -0.52285 8.5728
H 3.02194 -1.31568 8.00825
H -0.02409 1.31277 6.72259
H 1.5639 2.89688 7.61675
H 1.25493 1.79372 9.02277
H 3.71371 2.31699 7.56066
H 3.5564 0.93683 8.74176
H 3.97109 0.35908 6.14668
O -1.04348 -5.85069 5.50032
C -2.07194 -3.00917 0.84476
C -4.7329 -6.32117 3.3298
C -5.05968 -7.8097 3.21931
C -4.07532 -8.38571 4.21169
C -3.4601 -7.09737 4.76765
O -4.50537 -6.16172 4.70694
H -3.32187 -6.62802 1.73202
H -1.70879 -7.27565 3.41224
H -1.76266 -2.33681 1.6735
H -5.56883 -5.7249 2.90163
H -6.08903 -7.9492 3.62132
H -5.00722 -8.2353 2.19419
H -4.64679 -8.91976 5.00331
H -3.3028 -9.05859 3.78037
H -3.04057 -7.29 5.77909
H -2.98102 -2.60371 0.35143
H -1.25175 -3.05797 0.09962
H 2.63342 -5.07849 5.70483
H 4.32769 -4.54681 5.9749
H 3.42118 -3.94438 4.53789
H -1.45225 -2.65854 5.19251
H -0.84627 -3.87537 6.32366
H 0.21486 -2.95691 3.44894
H 0.90461 -4.35108 4.34561
$end

$opt
CONSTRAINT
tors           1           2           3           4     -93.757
tors           3           4           5           6     -49.812
tors           4           5           6           7    -169.659
tors           5           6           7           8     -39.534
tors           6           7           8           9    +179.851
tors           7           8           9          10    +152.194
tors           8           9          10          11    +179.105
tors           9          10          11          12      -3.437
tors          11          12          13          14     +96.421
ENDCONSTRAINT
$end

$rem
JOBTYPE                   OPT
METHOD                    B3LYP
DFT_D                     d3_op
BASIS                     STO-3G
GEOM_OPT_MAX_CYCLES       100
GEOM_OPT_TOL_GRADIENT     300
GEOM_OPT_TOL_DISPLACEMENT 1200
GEOM_OPT_TOL_ENERGY       100
SYMMETRY                  False
THRESH                    12
SCF_CONVERGENCE           8
MAX_SUB_FILE_NUM          128
MEM_STATIC                400
MEM_TOTAL                 4000
$end
--------------------------------------------------------------

   15   -1510.1149436061      8.05E-09 Convergence criterion met
 Total energy in the final basis set = -1510.11494361
   15   -1510.1884962171      1.42E-09 Convergence criterion met
 Total energy in the final basis set = -1510.18849622
   15   -1510.2284865247      1.59E-09 Convergence criterion met
 Total energy in the final basis set = -1510.22848652
   15   -1510.2513451208      1.39E-09 Convergence criterion met
 Total energy in the final basis set = -1510.25134512
   14   -1510.2629815554      4.67E-09 Convergence criterion met
 Total energy in the final basis set = -1510.26298156
   13   -1510.2692397191      6.63E-09 Convergence criterion met
 Total energy in the final basis set = -1510.26923972
   13   -1510.2727382590      4.96E-09 Convergence criterion met
 Total energy in the final basis set = -1510.27273826
   13   -1510.2745468011      4.05E-09 Convergence criterion met
   12   -1510.2759496347      3.78E-09 Convergence criterion met
 Total energy in the final basis set = -1510.27594963
   11   -1510.2759990844      7.76E-09 Convergence criterion met
 Total energy in the final basis set = -1510.27599908
   11   -1510.2760264877      2.55E-09 Convergence criterion met
 Total energy in the final basis set = -1510.27602649
   10   -1510.2760506113      4.81E-09 Convergence criterion met
 Total energy in the final basis set = -1510.27605061
   11   -1510.2760651748      3.24E-09 Convergence criterion met
 Total energy in the final basis set = -1510.27606517
    9   -1510.2760717007      9.50E-09 Convergence criterion met
 Total energy in the final basis set = -1510.27607170

             Standard Nuclear Orientation (Angstroms)
    I     Atom           X                Y                Z
 ----------------------------------------------------------------
    1      O      -3.1589569799    -2.4160513171    -0.2984215561
    2      C      -3.5433383849    -1.6496476586     0.6107682585
    3      C      -4.5907016367    -0.4868704727     0.5095553794
    4      C      -3.9788203890     0.9515551745     0.2278007850
    5      C      -2.4585095559     0.9692937190    -0.1879915432
    6      O      -1.7378420919     0.1802837733     0.7571542634
    7      C      -0.2560887801     0.2651795076     0.6787603144
    8      C       0.3914895396     0.3195927077    -0.7525663833
    9      O       1.8499797053     0.4028293968    -0.5019930668
   10      C       2.6085514322    -0.1571357439    -1.5691708094
   11      C       4.1474864315    -0.0306686066    -1.2791549748
   12      C       4.6202251551     0.7314517596     0.0337899922
   13      C       3.5016552732     1.3474429884     0.9501149974
   14      O       2.9858046323     0.8436386931     1.9714136502
   15      O      -3.1846813090    -1.7985516418     1.9918079276
   16      O       3.2234728682     2.6717519894     0.4647930013
   17      O       2.1033172855    -0.6957598462    -2.5784167738
   18      C       2.1441805885     3.2941175245     1.2626770201
   19      C       4.7633238925    -1.4770866617    -1.0177668577
   20      C       6.3280239187    -1.4095122958    -1.2176460335
   21      C       6.7728252267    -0.6752213243     0.1013284333
   22      C       5.3768795224    -0.4374919625     0.7988583149
   23      O       4.6003922379    -1.6476892713     0.4423171074
   24      H       4.6010316096     0.4292655591    -2.1765114087
   25      H       5.3084384173     1.5501551316    -0.2425167846
   26      H       4.2513330359    -2.2900545989    -1.5689267058
   27      H       6.7505392785    -2.4251047958    -1.2787697824
   28      H       6.6064452778    -0.8567933533    -2.1290466755
   29      H       7.4114904711    -1.3192335699     0.7266830638
   30      H       7.3055809243     0.2689056198    -0.0948113154
   31      H       5.4047838767    -0.3116356493     1.8984083969
   32      O      -1.9742879640     1.6394993243    -1.1260812873
   33      C      -2.1967692888    -2.8905669252     2.1389301054
   34      C      -5.5804564093    -0.6370369713    -0.7254978685
   35      C      -6.8791031691     0.1990359698    -0.3994767097
   36      C      -6.3335440688     1.6679266418    -0.5543272753
   37      C      -4.8476728294     1.3997387833    -1.0171314345
   38      O      -4.9370544805     0.1466598360    -1.8040029892
   39      H      -5.1472825408    -0.4709307424     1.4635512698
   40      H      -4.1033557968     1.6158889653     1.1029285025
   41      H      -1.2820570145    -2.6974620060     1.5425555464
   42      H      -5.7489117299    -1.6810001210    -1.0536017663
   43      H      -7.6686867762    -0.0166529549    -1.1368543738
   44      H      -7.2696764386    -0.0098091284     0.6091840745
   45      H      -6.8843102268     2.2251341032    -1.3285669588
   46      H      -6.3756484380     2.2382339906     0.3875194391
   47      H      -4.3748488413     2.2002681579    -1.6187071863
   48      H      -2.6178203213    -3.8683461291     1.8261956543
   49      H      -1.9368572983    -2.9264968483     3.2128430792
   50      H       1.2291881558     3.3829362556     0.6426346534
   51      H       2.4722140742     4.3051061164     1.5726276707
   52      H       1.9338898511     2.6677319379     2.1537500300
   53      H       0.1509249337    -0.5850357284    -1.3507735317
   54      H       0.0222576993     1.2135977415    -1.2968572369
   55      H       0.1142521906    -0.6295757865     1.2193661848
   56      H       0.0769602913     1.1642035570     1.2430123315
 ----------------------------------------------------------------

    9   -1510.2760731837      3.53E-09 Convergence criterion met
 Total energy in the final basis set = -1510.27607318
 Final energy is   -1510.27607318370
 **  OPTIMIZATION CONVERGED  **

                    Orbital Energies (a.u.)
 --------------------------------------------------------------

 Alpha MOs
 -- Occupied --
-18.946 -18.942 -18.927 -18.925 -18.888 -18.887 -18.885 -18.876
-18.867 -18.866 -10.111 -10.104 -10.098 -10.095 -10.079 -10.069
-10.061 -10.059 -10.058 -10.058 -10.057 -10.056 -10.041 -10.041
-10.036 -10.035 -10.021 -10.020 -10.020 -10.019  -1.021  -1.017
 -1.003  -1.002  -0.971  -0.969  -0.949  -0.940  -0.929  -0.929
 -0.764  -0.762  -0.730  -0.722  -0.710  -0.705  -0.700  -0.659
 -0.659  -0.619  -0.597  -0.589  -0.545  -0.544  -0.538  -0.537
 -0.514  -0.509  -0.488  -0.472  -0.459  -0.459  -0.456  -0.443
 -0.440  -0.430  -0.430  -0.411  -0.410  -0.409  -0.406  -0.402
 -0.392  -0.384  -0.379  -0.368  -0.367  -0.356  -0.352  -0.347
 -0.345  -0.338  -0.335  -0.333  -0.331  -0.329  -0.325  -0.312
 -0.311  -0.307  -0.305  -0.300  -0.297  -0.295  -0.287  -0.275
 -0.271  -0.250  -0.249  -0.244  -0.240  -0.235  -0.233  -0.190
 -0.181  -0.171  -0.167  -0.159  -0.157  -0.149  -0.146  -0.145
 -0.143

          Ground-State Mulliken Net Atomic Charges

     Atom                 Charge (a.u.)
  ----------------------------------------
      1 O                    -0.216467
      2 C                     0.211884
      3 C                    -0.080518
      4 C                    -0.076324
      5 C                     0.216140
      6 O                    -0.168664
      7 C                    -0.047397
      8 C                    -0.057698
      9 O                    -0.172192
     10 C                     0.213039
     11 C                    -0.077632
     12 C                    -0.080400
     13 C                     0.221964
     14 O                    -0.221972
     15 O                    -0.169038
     16 O                    -0.174359
     17 O                    -0.212669
     18 C                    -0.136198
     19 C                     0.025126
     20 C                    -0.143830
     21 C                    -0.144175
     22 C                     0.025256
     23 O                    -0.189384
     24 H                     0.087082
     25 H                     0.085048
     26 H                     0.086398
     27 H                     0.078644
     28 H                     0.074294
     29 H                     0.078081
     30 H                     0.073434
     31 H                     0.087123
     32 O                    -0.209838
     33 C                    -0.127466
     34 C                     0.024687
     35 C                    -0.143144
     36 C                    -0.144938
     37 C                     0.023384
     38 O                    -0.188531
     39 H                     0.085043
     40 H                     0.085805
     41 H                     0.086972
     42 H                     0.087154
     43 H                     0.078154
     44 H                     0.073116
     45 H                     0.078429
     46 H                     0.072643
     47 H                     0.090048
     48 H                     0.087221
     49 H                     0.089250
     50 H                     0.081387
     51 H                     0.084592
     52 H                     0.097830
     53 H                     0.099317
     54 H                     0.108473
     55 H                     0.096991
     56 H                     0.088825
  ----------------------------------------
  Sum of atomic charges =     0.000000

                    Cartesian Multipole Moments
 -----------------------------------------------------------------
    Charge (ESU x 10^10)
                 0.0000
    Dipole Moment (Debye)
         X       0.3237      Y       1.7818      Z       2.1210
       Tot       2.7889
    Quadrupole Moments (Debye-Ang)
        XX    -134.5840     XY      -1.3374     YY    -156.8161
        XZ     -10.6806     YZ      -0.1804     ZZ    -168.8076

 Total job time:  56.59s(wall), 2690.02s(cpu)
        *  Thank you very much for using Q-Chem.  Have a nice day.  *
