 Q-Chem 5.0, Q-Chem, Inc., Pleasanton, CA (2017)
 Q-Chem 5.0.1 for Intel X86 EM64T Linux

User input:
--------------------------------------------------------------
$molecule
0  1
O -3.94934 -3.66094 2.70899
C -3.26408 -4.56952 2.26188
C -3.36658 -6.02376 2.66595
C -2.4142 -6.51554 3.76821
C -1.58888 -5.45825 4.46754
O -1.03642 -4.61572 3.54539
C -0.05818 -3.73258 4.10429
C -0.55954 -3.16229 5.42699
O 0.42696 -2.27995 5.98481
C -0.05485 -1.30217 6.79163
C 1.03146 -0.42235 7.36305
C 2.46346 -0.91927 7.11661
C 2.61731 -1.99314 6.05839
O 2.81687 -1.79281 4.86902
O -2.34526 -4.2828 1.3008
O 2.90632 -3.22674 6.55899
O -1.24505 -1.07385 6.96886
C 3.51991 -4.24277 5.85486
C 1.08881 0.98653 6.75189
C 1.75798 1.94131 7.73892
C 3.1915 1.45095 7.67941
C 3.07548 0.3914 6.57646
O 2.05699 0.88482 5.73749
H 0.82569 -0.35682 8.45557
H 2.9686 -1.26549 8.04631
H 0.09304 1.37487 6.44565
H 1.71124 2.9591 7.28918
H 1.30894 1.96965 8.75506
H 3.83631 2.29499 7.34799
H 3.58592 1.01643 8.6234
H 4.06509 0.22433 6.09613
O -0.97895 -5.83403 5.46406
C -2.12141 -3.02046 0.79214
C -4.72365 -6.31694 3.3504
C -5.05564 -7.80516 3.24717
C -4.06043 -8.38191 4.22843
C -3.43205 -7.09447 4.77094
O -4.47509 -6.15539 4.72371
H -3.3381 -6.62783 1.73127
H -1.70302 -7.2835 3.38967
H -1.79776 -2.33283 1.60254
H -5.56429 -5.71942 2.93338
H -6.08025 -7.94228 3.66181
H -5.01623 -8.23216 2.22201
H -4.62337 -8.90915 5.03066
H -3.29756 -9.06093 3.78961
H -2.99543 -7.28423 5.77582
H -3.04628 -2.63056 0.31574
H -1.32015 -3.07354 0.02695
H 3.604 -5.13657 6.50634
H 4.54002 -3.92683 5.54983
H 2.94142 -4.51233 4.95265
H -1.47404 -2.59506 5.13591
H -0.85913 -3.8147 6.26356
H 0.17629 -2.92676 3.37689
H 0.86518 -4.30796 4.29647
$end

$opt
CONSTRAINT
tors           1           2           3           4     -94.605
tors           3           4           5           6     -46.240
tors           4           5           6           7    -169.759
tors           5           6           7           8     -43.752
tors           6           7           8           9    +179.851
tors           7           8           9          10    +152.930
tors           8           9          10          11    +179.105
tors           9          10          11          12      -9.257
tors          11          12          13          14     +90.197
ENDCONSTRAINT
$end

$rem
JOBTYPE                   OPT
METHOD                    B3LYP
DFT_D                     d3_op
BASIS                     STO-3G
GEOM_OPT_MAX_CYCLES       100
GEOM_OPT_TOL_GRADIENT     300
GEOM_OPT_TOL_DISPLACEMENT 1200
GEOM_OPT_TOL_ENERGY       100
SYMMETRY                  False
THRESH                    12
SCF_CONVERGENCE           8
MAX_SUB_FILE_NUM          128
MEM_STATIC                400
MEM_TOTAL                 4000
$end
--------------------------------------------------------------

   16   -1510.1210271043      3.28E-09 Convergence criterion met
 Total energy in the final basis set = -1510.12102710
   15   -1510.1937972921      1.21E-09 Convergence criterion met
 Total energy in the final basis set = -1510.19379729
   14   -1510.2330060764      8.84E-09 Convergence criterion met
 Total energy in the final basis set = -1510.23300608
   15   -1510.2546130104      1.30E-09 Convergence criterion met
 Total energy in the final basis set = -1510.25461301
   13   -1510.2655147456      8.96E-09 Convergence criterion met
 Total energy in the final basis set = -1510.26551475
   13   -1510.2708334484      7.21E-09 Convergence criterion met
 Total energy in the final basis set = -1510.27083345
   13   -1510.2738224508      4.77E-09 Convergence criterion met
 Total energy in the final basis set = -1510.27382245
   13   -1510.2751040322      7.13E-09 Convergence criterion met
   11   -1510.2761059437      7.94E-09 Convergence criterion met
 Total energy in the final basis set = -1510.27610594
   11   -1510.2761191078      3.17E-09 Convergence criterion met
 Total energy in the final basis set = -1510.27611911
   11   -1510.2761330842      3.92E-09 Convergence criterion met
 Total energy in the final basis set = -1510.27613308
    9   -1510.2761435569      8.45E-09 Convergence criterion met
 Total energy in the final basis set = -1510.27614356
    9   -1510.2761506780      6.58E-09 Convergence criterion met
 Total energy in the final basis set = -1510.27615068
    9   -1510.2761536184      5.63E-09 Convergence criterion met
 Total energy in the final basis set = -1510.27615362

             Standard Nuclear Orientation (Angstroms)
    I     Atom           X                Y                Z
 ----------------------------------------------------------------
    1      O      -3.1852760992    -2.4158284535    -0.2720334412
    2      C      -3.5677856117    -1.6405536241     0.6303806763
    3      C      -4.5986927416    -0.4642231273     0.5134521266
    4      C      -3.9705763442     0.9708519802     0.2521552631
    5      C      -2.4417272591     0.9882418035    -0.1289726125
    6      O      -1.7484387186     0.1274097813     0.7733898851
    7      C      -0.2658512296     0.2035476328     0.7142627493
    8      C       0.3856839108     0.2427996691    -0.7156534432
    9      O       1.8449780393     0.3202030515    -0.4665211052
   10      C       2.5945341784    -0.2393234746    -1.5409296693
   11      C       4.1363293632    -0.1258362198    -1.2655004962
   12      C       4.6460027921     0.7419132200    -0.0343203112
   13      C       3.5546461626     1.3966613273     0.8905331421
   14      O       3.0203381090     0.9164466577     1.9123175798
   15      O      -3.2359542817    -1.7970513395     2.0177527884
   16      O       3.2992179009     2.7171692288     0.3863994891
   17      O       2.0797495032    -0.7739597416    -2.5478568881
   18      C       2.2489849700     3.3751379628     1.1932594060
   19      C       4.7360812267    -1.5563071185    -0.8911307310
   20      C       6.2900677808    -1.5372272582    -1.1697701957
   21      C       6.8027254431    -0.6694101107     0.0385759308
   22      C       5.4476610920    -0.3580631841     0.7855518962
   23      O       4.6451510519    -1.5869910243     0.5843070800
   24      H       4.5906898682     0.2431469493    -2.2033113052
   25      H       5.3058813957     1.5507479541    -0.3953228292
   26      H       4.1868691251    -2.4082447284    -1.3376569878
   27      H       6.6972096653    -2.5602999208    -1.1355171689
   28      H       6.5313919563    -1.0932817216    -2.1486451512
   29      H       7.4796477879    -1.2440674741     0.6905767585
   30      H       7.3187426316     0.2484857327    -0.2851770683
   31      H       5.5399020903    -0.1356051482     1.8660808903
   32      O      -1.9266880271     1.7098368120    -1.0112203435
   33      C      -2.2688769008    -2.9053987013     2.1798071774
   34      C      -5.5657063312    -0.5995301472    -0.7413172336
   35      C      -6.8636765679     0.2450208182    -0.4355655391
   36      C      -6.3036310495     1.7103288945    -0.5721958793
   37      C      -4.8112495380     1.4327810613    -1.0074129250
   38      O      -4.8953352296     0.1848481025    -1.8028030645
   39      H      -5.1740481911    -0.4473076141     1.4562445188
   40      H      -4.1112618299     1.6315874650     1.1277388791
   41      H      -1.3395278104    -2.7245824982     1.6025316080
   42      H      -5.7355219235    -1.6403762004    -1.0784990400
   43      H      -7.6410166764     0.0396297411    -1.1886917358
   44      H      -7.2743486146     0.0340012072     0.5645946291
   45      H      -6.8348224485     2.2756763422    -1.3542019914
   46      H      -6.3596578279     2.2764973282     0.3714349088
   47      H      -4.3204818921     2.2332543838    -1.5947536914
   48      H      -2.6991176629    -3.8750188619     1.8544399855
   49      H      -2.0309355884    -2.9499470519     3.2584829722
   50      H       2.1877899173     4.4176896253     0.8303623487
   51      H       2.4953432359     3.3692643427     2.2746263105
   52      H       1.2650589405     2.8817294060     1.0550068411
   53      H       0.1377118454    -0.6641765154    -1.3070112648
   54      H       0.0197633997     1.1373360892    -1.2622436163
   55      H       0.0911133257    -0.6912545461     1.2632595917
   56      H       0.0708176496     1.1032662764     1.2758104893
 ----------------------------------------------------------------

    9   -1510.2761544383      2.02E-09 Convergence criterion met
 Total energy in the final basis set = -1510.27615444
 Final energy is   -1510.27615443832
 **  OPTIMIZATION CONVERGED  **

                    Orbital Energies (a.u.)
 --------------------------------------------------------------

 Alpha MOs
 -- Occupied --
-18.947 -18.940 -18.927 -18.926 -18.888 -18.887 -18.885 -18.875
-18.867 -18.865 -10.111 -10.103 -10.096 -10.095 -10.080 -10.068
-10.062 -10.060 -10.059 -10.058 -10.058 -10.057 -10.041 -10.040
-10.035 -10.035 -10.020 -10.020 -10.019 -10.019  -1.022  -1.016
 -1.003  -1.002  -0.971  -0.969  -0.949  -0.939  -0.929  -0.929
 -0.764  -0.761  -0.730  -0.722  -0.710  -0.705  -0.699  -0.661
 -0.659  -0.619  -0.597  -0.589  -0.545  -0.543  -0.538  -0.537
 -0.515  -0.510  -0.488  -0.472  -0.460  -0.459  -0.456  -0.442
 -0.439  -0.430  -0.429  -0.411  -0.410  -0.408  -0.406  -0.402
 -0.391  -0.385  -0.379  -0.368  -0.367  -0.355  -0.352  -0.346
 -0.345  -0.337  -0.334  -0.333  -0.331  -0.329  -0.325  -0.312
 -0.310  -0.307  -0.306  -0.301  -0.297  -0.292  -0.287  -0.275
 -0.271  -0.251  -0.249  -0.248  -0.240  -0.235  -0.233  -0.190
 -0.181  -0.170  -0.170  -0.159  -0.156  -0.145  -0.145  -0.145
 -0.143

          Ground-State Mulliken Net Atomic Charges

     Atom                 Charge (a.u.)
  ----------------------------------------
      1 O                    -0.217083
      2 C                     0.212787
      3 C                    -0.080689
      4 C                    -0.076389
      5 C                     0.216396
      6 O                    -0.168032
      7 C                    -0.046096
      8 C                    -0.058909
      9 O                    -0.171842
     10 C                     0.211692
     11 C                    -0.078210
     12 C                    -0.080679
     13 C                     0.219125
     14 O                    -0.218328
     15 O                    -0.169539
     16 O                    -0.173126
     17 O                    -0.213399
     18 C                    -0.127690
     19 C                     0.025342
     20 C                    -0.143491
     21 C                    -0.144595
     22 C                     0.025672
     23 O                    -0.188343
     24 H                     0.086646
     25 H                     0.084575
     26 H                     0.085535
     27 H                     0.078485
     28 H                     0.074392
     29 H                     0.077976
     30 H                     0.073478
     31 H                     0.085889
     32 O                    -0.210070
     33 C                    -0.127468
     34 C                     0.024665
     35 C                    -0.143170
     36 C                    -0.144896
     37 C                     0.023360
     38 O                    -0.188836
     39 H                     0.084966
     40 H                     0.085920
     41 H                     0.086677
     42 H                     0.087304
     43 H                     0.078164
     44 H                     0.073142
     45 H                     0.078450
     46 H                     0.072676
     47 H                     0.090072
     48 H                     0.087119
     49 H                     0.089035
     50 H                     0.089254
     51 H                     0.088493
     52 H                     0.081611
     53 H                     0.098882
     54 H                     0.108180
     55 H                     0.097336
     56 H                     0.087582
  ----------------------------------------
  Sum of atomic charges =     0.000000

                    Cartesian Multipole Moments
 -----------------------------------------------------------------
    Charge (ESU x 10^10)
                 0.0000
    Dipole Moment (Debye)
         X       0.2708      Y       1.7762      Z       2.0289
       Tot       2.7101
    Quadrupole Moments (Debye-Ang)
        XX    -134.6087     XY      -1.4037     YY    -155.9831
        XZ     -10.6978     YZ       0.0070     ZZ    -168.6709

 Total job time:  58.29s(wall), 2772.04s(cpu)
        *  Thank you very much for using Q-Chem.  Have a nice day.  *
