 Q-Chem 5.0, Q-Chem, Inc., Pleasanton, CA (2017)
 Q-Chem 5.0.1 for Intel X86 EM64T Linux

User input:
--------------------------------------------------------------
$molecule
0  1
O -3.1852760992 -2.4158284535 -0.2720334412
C -3.5677856117 -1.6405536241 0.6303806763
C -4.5986927416 -0.4642231273 0.5134521266
C -3.9705763442 0.9708519802 0.2521552631
C -2.4417272591 0.9882418035 -0.1289726125
O -1.7484387186 0.1274097813 0.7733898851
C -0.2658512296 0.2035476328 0.7142627493
C 0.3856839108 0.2427996691 -0.7156534432
O 1.8449780393 0.3202030515 -0.4665211052
C 2.5945341784 -0.2393234746 -1.5409296693
C 4.1363293632 -0.1258362198 -1.2655004962
C 4.6460027921 0.74191322 -0.0343203112
C 3.5546461626 1.3966613273 0.8905331421
O 3.020338109 0.9164466577 1.9123175798
O -3.2359542817 -1.7970513395 2.0177527884
O 3.2992179009 2.7171692288 0.3863994891
O 2.0797495032 -0.7739597416 -2.5478568881
C 2.24898497 3.3751379628 1.193259406
C 4.7360812267 -1.5563071185 -0.891130731
C 6.2900677808 -1.5372272582 -1.1697701957
C 6.8027254431 -0.6694101107 0.0385759308
C 5.447661092 -0.3580631841 0.7855518962
O 4.6451510519 -1.5869910243 0.58430708
H 4.5906898682 0.2431469493 -2.2033113052
H 5.3058813957 1.5507479541 -0.3953228292
H 4.1868691251 -2.4082447284 -1.3376569878
H 6.6972096653 -2.5602999208 -1.1355171689
H 6.5313919563 -1.0932817216 -2.1486451512
H 7.4796477879 -1.2440674741 0.6905767585
H 7.3187426316 0.2484857327 -0.2851770683
H 5.5399020903 -0.1356051482 1.8660808903
O -1.9266880271 1.709836812 -1.0112203435
C -2.2688769008 -2.9053987013 2.1798071774
C -5.5657063312 -0.5995301472 -0.7413172336
C -6.8636765679 0.2450208182 -0.4355655391
C -6.3036310495 1.7103288945 -0.5721958793
C -4.811249538 1.4327810613 -1.007412925
O -4.8953352296 0.1848481025 -1.8028030645
H -5.1740481911 -0.4473076141 1.4562445188
H -4.1112618299 1.631587465 1.1277388791
H -1.3395278104 -2.7245824982 1.602531608
H -5.7355219235 -1.6403762004 -1.07849904
H -7.6410166764 0.0396297411 -1.1886917358
H -7.2743486146 0.0340012072 0.5645946291
H -6.8348224485 2.2756763422 -1.3542019914
H -6.3596578279 2.2764973282 0.3714349088
H -4.3204818921 2.2332543838 -1.5947536914
H -2.6991176629 -3.8750188619 1.8544399855
H -2.0309355884 -2.9499470519 3.2584829722
H 2.1877899173 4.4176896253 0.8303623487
H 2.4953432359 3.3692643427 2.2746263105
H 1.2650589405 2.881729406 1.0550068411
H 0.1377118454 -0.6641765154 -1.3070112648
H 0.0197633997 1.1373360892 -1.2622436163
H 0.0911133257 -0.6912545461 1.2632595917
H 0.0708176496 1.1032662764 1.2758104893
$end

$rem
JOBTYPE                   OPT
METHOD                    B3LYP
DFT_D                     d3_op
BASIS                     STO-3G
GEOM_OPT_MAX_CYCLES       100
GEOM_OPT_TOL_GRADIENT     300
GEOM_OPT_TOL_DISPLACEMENT 1200
GEOM_OPT_TOL_ENERGY       100
SYMMETRY                  False
THRESH                    12
SCF_CONVERGENCE           8
MAX_SUB_FILE_NUM          128
MEM_STATIC                400
MEM_TOTAL                 4000
$end
--------------------------------------------------------------

   16   -1510.2761216717      4.94E-09 Convergence criterion met
 Total energy in the final basis set = -1510.27612167
   14   -1510.2787940609      9.31E-09 Convergence criterion met
 Total energy in the final basis set = -1510.27879406
   14   -1510.2813293412      6.02E-09 Convergence criterion met
 Total energy in the final basis set = -1510.28132934
   14   -1510.2840070905      5.71E-09 Convergence criterion met
 Total energy in the final basis set = -1510.28400709
   14   -1510.2853036310      3.14E-09 Convergence criterion met
 Total energy in the final basis set = -1510.28530363
   14   -1510.2862421912      9.42E-09 Convergence criterion met
 Total energy in the final basis set = -1510.28624219
   14   -1510.2874942077      5.18E-09 Convergence criterion met
 Total energy in the final basis set = -1510.28749421
   14   -1510.2884085784      7.42E-09 Convergence criterion met
   12   -1510.2997199338      7.94E-09 Convergence criterion met
 Total energy in the final basis set = -1510.29971993
   12   -1510.2997656202      3.80E-09 Convergence criterion met
 Total energy in the final basis set = -1510.29976562
   11   -1510.2997731453      3.89E-09 Convergence criterion met
 Total energy in the final basis set = -1510.29977315
   10   -1510.2997762637      4.05E-09 Convergence criterion met
 Total energy in the final basis set = -1510.29977626
   11   -1510.2997789273      4.05E-09 Convergence criterion met
 Total energy in the final basis set = -1510.29977893
    9   -1510.2997808754      7.28E-09 Convergence criterion met
 Total energy in the final basis set = -1510.29978088

             Standard Nuclear Orientation (Angstroms)
    I     Atom           X                Y                Z
 ----------------------------------------------------------------
    1      O      -1.5797189507     0.2078281400     0.7189352824
    2      C      -2.6140024588     0.8838682033     0.4934781573
    3      C      -3.8847816812     0.3821761613    -0.2702495419
    4      C      -3.5611515156    -0.7768256624    -1.3073231913
    5      C      -2.0256042771    -1.0483535443    -1.4990071517
    6      O      -1.4968008323     0.0231410032    -2.2903115924
    7      C      -0.0105926319    -0.0029974074    -2.2893814930
    8      C       0.4466237135     1.0071090824    -1.1839370024
    9      O       1.8720405052     0.7724370383    -0.8646600477
   10      C       2.1766730015     1.3510304387     0.4076483855
   11      C       3.6629523558     0.9984434915     0.7407968103
   12      C       3.9624787117    -0.5540619845     0.6145421132
   13      C       2.6967241345    -1.4373952400     0.3031130277
   14      O       2.5679927947    -2.2783484996    -0.6118134971
   15      O      -2.7916999267     2.2280560828     0.9157036452
   16      O       1.7178078845    -1.1640070803     1.3081586295
   17      O       1.3745206597     2.0306043289     1.0886333821
   18      C       0.5522849050    -2.0713092530     1.1731563760
   19      C       4.6486090231     1.5698855002    -0.3706420432
   20      C       6.1338076315     1.4448418751     0.1570629075
   21      C       6.3973689453    -0.0963046175    -0.0296532351
   22      C       4.9989011274    -0.5747652467    -0.5828096533
   23      O       4.5690704002     0.5537581290    -1.4421497574
   24      H       3.8960068914     1.3868348629     1.7472769519
   25      H       4.4192936472    -0.9336228323     1.5471205628
   26      H       4.3705123452     2.5684149107    -0.7605083097
   27      H       6.8138401922     2.0501809314    -0.4632630906
   28      H       6.2297487534     1.7694550057     1.2056938882
   29      H       7.1905354647    -0.2817920614    -0.7712344176
   30      H       6.6673344274    -0.6005159134     0.9116902830
   31      H       4.9968559160    -1.5210030285    -1.1580296646
   32      O      -1.3729599160    -2.0480605994    -1.1232125147
   33      C      -1.6294564701     2.6775503638     1.7309362235
   34      C      -4.8434017976    -0.3970206873     0.7349751238
   35      C      -6.2238767425    -0.6689476985     0.0149542372
   36      C      -5.8467899303    -1.8676012042    -0.9337360588
   37      C      -4.3037241572    -2.0077745251    -0.6379480178
   38      O      -4.2104916774    -1.7314394846     0.8156116040
   39      H      -4.3893183946     1.2428914033    -0.7435727541
   40      H      -3.9903484974    -0.5325117832    -2.2957288499
   41      H      -0.6446218777     2.4227172085     1.2755253811
   42      H      -4.9193100243     0.0614470977     1.7402363577
   43      H      -6.9911768368    -0.9579255998     0.7506674776
   44      H      -6.5804238345     0.2146054113    -0.5383147420
   45      H      -6.3779985757    -2.7894602526    -0.6481394138
   46      H      -6.0517794059    -1.6542097741    -1.9949478015
   47      H      -3.8505391082    -2.9904047655    -0.8724703516
   48      H      -1.6734369820     2.2254225472     2.7425966098
   49      H      -1.7344830874     3.7742299265     1.8179264550
   50      H      -0.1361805527    -1.7923896379     1.9913097200
   51      H       0.8598451772    -3.1299504084     1.2932629287
   52      H       0.0176765412    -1.9627104451     0.2015291346
   53      H       0.2895489492     2.0534030520    -1.5243011359
   54      H      -0.1820887125     0.8238673815    -0.2801777522
   55      H       0.3284106913     0.2993970203    -3.3000484073
   56      H       0.3589794969    -1.0245978363    -2.0549302760
 ----------------------------------------------------------------

    9   -1510.2997816158      7.00E-09 Convergence criterion met
 Total energy in the final basis set = -1510.29978162
 Final energy is   -1510.29978161585
 **  OPTIMIZATION CONVERGED  **

                    Orbital Energies (a.u.)
 --------------------------------------------------------------

 Alpha MOs
 -- Occupied --
-18.946 -18.930 -18.930 -18.917 -18.891 -18.885 -18.883 -18.880
-18.872 -18.861 -10.110 -10.104 -10.098 -10.087 -10.066 -10.064
-10.061 -10.057 -10.055 -10.053 -10.052 -10.045 -10.040 -10.034
-10.033 -10.029 -10.024 -10.022 -10.017 -10.015  -1.022  -1.012
 -1.008  -0.994  -0.974  -0.965  -0.944  -0.939  -0.932  -0.922
 -0.767  -0.758  -0.728  -0.721  -0.712  -0.702  -0.692  -0.663
 -0.642  -0.611  -0.595  -0.578  -0.548  -0.541  -0.539  -0.532
 -0.516  -0.506  -0.482  -0.472  -0.464  -0.458  -0.455  -0.440
 -0.434  -0.429  -0.424  -0.419  -0.410  -0.400  -0.397  -0.396
 -0.392  -0.376  -0.371  -0.364  -0.361  -0.356  -0.353  -0.346
 -0.342  -0.335  -0.334  -0.330  -0.328  -0.326  -0.318  -0.314
 -0.307  -0.306  -0.302  -0.300  -0.289  -0.287  -0.280  -0.274
 -0.266  -0.261  -0.250  -0.240  -0.238  -0.236  -0.229  -0.188
 -0.178  -0.168  -0.165  -0.160  -0.154  -0.152  -0.148  -0.140
 -0.138

          Ground-State Mulliken Net Atomic Charges

     Atom                 Charge (a.u.)
  ----------------------------------------
      1 O                    -0.215188
      2 C                     0.216607
      3 C                    -0.077663
      4 C                    -0.079288
      5 C                     0.219524
      6 O                    -0.177773
      7 C                    -0.053595
      8 C                    -0.063853
      9 O                    -0.168703
     10 C                     0.218350
     11 C                    -0.078399
     12 C                    -0.078135
     13 C                     0.212825
     14 O                    -0.215924
     15 O                    -0.165302
     16 O                    -0.177522
     17 O                    -0.219140
     18 C                    -0.138585
     19 C                     0.025871
     20 C                    -0.144134
     21 C                    -0.143827
     22 C                     0.024137
     23 O                    -0.186463
     24 H                     0.084666
     25 H                     0.082426
     26 H                     0.080698
     27 H                     0.077106
     28 H                     0.073094
     29 H                     0.077232
     30 H                     0.072797
     31 H                     0.090521
     32 O                    -0.210321
     33 C                    -0.139665
     34 C                     0.025656
     35 C                    -0.143939
     36 C                    -0.143395
     37 C                     0.024874
     38 O                    -0.187596
     39 H                     0.088904
     40 H                     0.086519
     41 H                     0.114913
     42 H                     0.083789
     43 H                     0.079133
     44 H                     0.074532
     45 H                     0.079179
     46 H                     0.074126
     47 H                     0.090859
     48 H                     0.085726
     49 H                     0.088826
     50 H                     0.089276
     51 H                     0.079284
     52 H                     0.107885
     53 H                     0.076711
     54 H                     0.107115
     55 H                     0.089218
     56 H                     0.106033
  ----------------------------------------
  Sum of atomic charges =     0.000000

                    Cartesian Multipole Moments
 -----------------------------------------------------------------
    Charge (ESU x 10^10)
                 0.0000
    Dipole Moment (Debye)
         X      -1.4784      Y       1.9224      Z       0.3455
       Tot       2.4496
    Quadrupole Moments (Debye-Ang)
        XX    -135.4772     XY       2.1398     YY    -162.2987
        XZ       9.9547     YZ      -0.1325     ZZ    -159.6784

 Total job time:  134.99s(wall), 6437.09s(cpu)
        *  Thank you very much for using Q-Chem.  Have a nice day.  *
